<?xml version="1.0"?>
<VTKFile type="UnstructuredGrid"  version="0.1"  >
<UnstructuredGrid>
<Piece  NumberOfPoints="2118" NumberOfCells="9993">
<Points>
<DataArray  type="Float64"  NumberOfComponents="3"  format="ascii">-157.5 -157.5 108.1689131873183  -78.75 -78.75 135.7334472372335  -78.75 -78.75 124.8040820066971  -78.75 -157.5 118.7092542792569  0 -157.5 121.2840038101008  0 -78.75 125.6999504194373  0 0 126  -157.5 -78.75 118.7092542792569  -157.5 0 121.2840038101008  -78.75 0 136.9572095232521  -78.75 0 125.6999504194373  -157.5 -157.5 130.8519681979664  -78.75 -78.75 147.7048906458939  -157.5 -78.75 139.3213447279959  -157.5 -78.75 128.0225926620935  -157.5 0 143.0251622323665  -157.5 0 131.7529029132249  -78.75 78.75 135.7334319646444  -78.75 78.75 124.8040820066971  0 78.75 125.6999504194373  0 157.5 121.2840038101008  0 787.5 5.571642168467061e-09  0 945 0  157.5 945 0  157.5 945 44.82453776597382  0 787.5 45.15784409797858  0 945 44.84027262032544  157.5 1102.5 0  157.5 1102.5 44.70486527073565  0 1102.5 0  0 1102.5 44.70971944735111  157.5 1260 0  157.5 1260 44.63854847926853  0 1260 0  0 1260 44.63854847926853  315 1260 0  315 1260 44.63854847926853  -78.75 -78.75 160.2525308965354  157.5 945 89.63766386458008  0 945 89.66798901920818  157.5 1102.5 89.40602835664076  0 1102.5 89.41543130144579  157.5 1260 89.27709695853706  0 1260 89.27709695853706  315 1260 89.27709695853706  157.5 1102.5 134.1000740952931  0 945 134.4717439337876  0 1102.5 134.1134452410074  157.5 1260 133.9156454378056  0 1260 133.9156454378056  315 1260 133.9156454378056  157.5 1260 178.5541939170741  315 1260 178.5541939170741  157.5 1102.5 471.8553799936532  157.5 1102.5 630  157.5 1260 630  315 1260 630  157.5 1260 471.6566131182932  -1260 -472.5 0  -1260 -472.5 44.63854847926853  -1260 -315 44.63854847926853  -1102.5 -315 44.69322211452958  -945 -157.5 0  -787.5 -157.5 7.96278903925085e-10  -787.5 0 5.571642168467061e-09  -787.5 0 45.15904800022714  -787.5 -157.5 45.11278706345947  -945 -157.5 44.82587332735861  -630 -157.5 0.002053533747214731  -708.75 -78.75 22.81509966323377  -708.75 -78.75 1.374296705193567e-05  -630 -78.75 23.27672560508399  -630 -78.75 0.005316696856539425  -630 0 0.00723125198117304  -630 0 23.24517936929577  -630 0 46.43182613975019  -708.75 -157.5 22.80904446851165  -630 -157.5 23.09251022364725  -630 -157.5 46.14869610378825  -630 -78.75 46.43520121999933  -708.75 -78.75 45.60655807947697  -708.75 0 22.88928436136326  -472.5 -157.5 2.777592766701777  -472.5 -78.75 30.77189486921489  -472.5 -78.75 4.817868252909133  -551.25 -78.75 24.54927912315761  -551.25 -78.75 0.3249179563284444  -472.5 0 5.733792171117909  -472.5 0 30.90302082337423  -472.5 0 55.51399000809717  -472.5 -157.5 52.38040153206776  -472.5 -78.75 55.11775123040672  -551.25 -78.75 48.38667756748633  -551.25 0 24.81603584601098  -551.25 0 0.4114169189615289  -551.25 0 48.94366525401677  -393.75 -78.75 48.42318709614958  -393.75 -78.75 25.14281857983035  -393.75 -157.5 16.96549637722454  -315 -157.5 48.55065037082936  -315 -78.75 79.84531340896186  -315 -78.75 63.25993645349318  -315 0 68.43814498819684  -315 0 84.55939904110791  -315 0 101.2182475399343  -315 -157.5 87.46995937439458  -315 -78.75 97.1123530465884  -393.75 -78.75 70.92310406542613  -393.75 -157.5 65.55460121786335  -393.75 0 51.15376116480337  -393.75 0 28.3936573525129  -393.75 0 73.73460124342702  -236.25 -78.75 110.6028030392228  -236.25 -78.75 99.27197720492742  -236.25 -157.5 84.2134382994756  -236.25 -78.75 123.822184942206  -236.25 -157.5 111.6010815426622  -236.25 0 114.0089044771978  -236.25 0 103.8723620970818  -236.25 0 126.1799785809838  -1102.5 -472.5 44.67847870872878  -1102.5 -315 89.38345329409722  -1102.5 -472.5 89.35483005046535  -1260 -472.5 89.27709695853706  -1260 -315 89.27709695853706  -945 -315 89.56673877390898  -1102.5 -157.5 89.40687668118161  -1260 -157.5 89.27709695853706  -945 -157.5 89.64023582666672  -1102.5 -157.5 44.7053016296268  -393.75 -157.5 88.27770856122352  -393.75 -236.25 81.31792818560835  -315 -157.5 107.1148624902363  -315 -157.5 126.8405826143515  -472.5 -157.5 99.71571083691032  -393.75 -157.5 110.7992516693465  -393.75 -236.25 104.3914324233129  -472.5 -157.5 76.20843744236238  -236.25 -157.5 127.3794296677745  -236.25 -236.25 112.7431885928296  -157.5 -157.5 144.4449703621232  -157.5 -157.5 158.8052039289678  -236.25 -157.5 144.0777729871767  -945 0 89.66930670218328  -787.5 0 90.28062423353725  -787.5 -157.5 90.1906727173495  -708.75 -78.75 68.37508384020821  -630 -78.75 69.55005921419016  -630 0 69.50896069604786  -630 0 92.50025332352627  -708.75 -157.5 68.35347192950653  -630 -157.5 69.12577449474175  -630 -157.5 92.03715338184509  -630 -78.75 92.49318113789573  -708.75 -78.75 91.09013779139595  -708.75 0 68.56586351293737  -472.5 -78.75 79.11085849490593  -551.25 -78.75 72.02685231521332  -472.5 0 79.25291025158529  -472.5 0 102.6304879614984  -472.5 -78.75 102.2150794973667  -551.25 -78.75 95.3089430474715  -551.25 -157.5 94.70123944905356  -551.25 0 72.50886411173762  -551.25 0 95.92827802940531  -393.75 -78.75 93.10870809775085  -315 -78.75 115.2269203266498  -315 0 118.7391858777303  -315 0 136.6291891047729  -315 -78.75 133.6237362535808  -393.75 -78.75 114.855798468699  -393.75 0 95.27911156737093  -393.75 0 116.923849810149  -236.25 -78.75 137.8878600203598  -157.5 -78.75 151.9571023677507  -157.5 0 155.7723027173205  -157.5 0 169.2202198212894  -157.5 -78.75 165.8172650539728  -236.25 -78.75 153.315244293075  -236.25 0 140.0335790267368  -236.25 0 155.0227102638094  -78.75 -78.75 173.9016022533032  -78.75 0 175.2104964193501  -78.75 0 161.691050604317  -1102.5 -315 134.0679235215975  -1102.5 -472.5 134.0270706741769  -1260 -472.5 133.9156454378056  -1260 -315 133.9156454378056  -945 -315 134.3288108728928  -1102.5 -157.5 134.1012885432385  -1260 -157.5 133.9156454378056  -945 -157.5 134.4326999941081  -787.5 -157.5 135.2025036226514  -393.75 -157.5 132.7132572747224  -393.75 -236.25 127.1840245190241  -315 -157.5 146.72096267486  -315 -157.5 166.6806064440466  -472.5 -157.5 122.7235035578696  -472.5 -157.5 145.5225505470731  -393.75 -157.5 154.5947097872972  -236.25 -157.5 161.4333825876075  -236.25 -236.25 150.7946265948241  -157.5 -157.5 174.4047488771641  -157.5 -157.5 190.5475250241059  -236.25 -157.5 179.3687033493891  -1102.5 0 134.1141414964157  -1260 0 133.9156454378056  -945 0 134.4737360331328  -787.5 0 135.3278672576406  -708.75 -78.75 113.7701487793336  -630 -78.75 115.3949555428205  -630 0 115.3660865217423  -630 0 138.1407299450973  -630 -157.5 114.8482467253905  -630 -157.5 137.5849540463142  -630 -78.75 138.1170208936264  -708.75 -78.75 136.3837626580762  -708.75 0 114.0257256785893  -551.25 -78.75 118.4263051929865  -472.5 -78.75 125.1934879913747  -472.5 0 125.4651183412767  -472.5 0 148.0797217187169  -472.5 -78.75 147.6294648080682  -551.25 -78.75 141.2634329590995  -551.25 0 118.9212802493588  -551.25 0 141.833366311733  -393.75 -78.75 136.4366852947616  -315 -78.75 152.5531964359135  -315 0 155.1073180702114  -315 0 173.8397033296683  -315 -78.75 171.6392781588482  -393.75 -78.75 157.7971190187633  -393.75 0 138.0314532718041  -393.75 0 159.2892301948585  -236.25 -78.75 169.3337363874147  -157.5 -78.75 180.6120613206371  -157.5 0 183.8739088494243  -157.5 0 199.0822299567196  -157.5 -78.75 196.2531160583153  -236.25 -78.75 186.2980261882371  -236.25 0 170.9601393787834  -236.25 0 187.6561487889497  -78.75 -78.75 188.0948365030672  -78.75 0 189.5001789757044  -78.75 -78.75 203.2642588525671  -78.75 0 204.4831043397332  0 0 206.9384247558623  -1102.5 -315 178.7442720420615  -1260 -472.5 178.5541939170741  -1260 -315 178.5541939170741  -945 -315 179.0674948896917  -1102.5 -157.5 178.7856403073387  -1260 -157.5 178.5541939170741  -945 -157.5 179.1950022391938  -787.5 -157.5 180.1276078334436  -1102.5 0 178.8015565789227  -1260 0 178.5541939170741  -945 0 179.2452143066834  -787.5 0 180.2770795283541  -708.75 -78.75 158.9582159468157  -630 -78.75 160.8072457072033  -630 0 160.800583039287  -630 0 183.3770183888953  -630 -157.5 160.2240123731584  -630 -157.5 182.7920731925248  -630 -78.75 183.3328830824989  -708.75 -78.75 181.464351350907  -708.75 0 159.2400096436314  -472.5 -78.75 170.0262285300902  -551.25 -78.75 163.9758499981326  -472.5 0 170.3680495916529  -472.5 0 192.5255857770918  -472.5 -157.5 168.0019858576262  -472.5 -157.5 190.3494329924076  -472.5 -78.75 192.0758881306809  -551.25 -78.75 186.4815277399564  -551.25 -157.5 185.7989974212288  -551.25 0 164.4268418367041  -551.25 0 186.9793776373083  -393.75 -78.75 179.0786737787431  -315 -78.75 191.1028391749485  -315 0 192.9844945420589  -315 0 212.3111245181628  -393.75 -157.5 176.1389574923845  -315 -157.5 186.7874503173121  -315 -157.5 206.9676428984521  -315 -78.75 210.6738531795457  -393.75 -78.75 200.2635599979617  -393.75 -157.5 197.7099116947728  -393.75 0 180.2500312768637  -393.75 0 201.3580669145138  -236.25 -78.75 203.6749354538866  -157.5 -78.75 212.5928793690736  -157.5 0 215.2288624947653  -157.5 0 231.8028007955214  -157.5 -157.5 224.9785833963404  -157.5 -78.75 229.543961687765  -236.25 -78.75 221.7205341505028  -236.25 -157.5 216.4834694050345  -236.25 0 204.9542960248975  -236.25 0 222.7996295340512  -78.75 -78.75 235.3477695757014  -78.75 -157.5 229.5445151180218  -78.75 -78.75 218.8988488899244  0 -157.5 231.8033506000915  0 -78.75 236.3843516404101  0 0 238.5477680429499  -78.75 0 220.1349811703454  0 0 222.5491981403951  -78.75 0 236.3841357495043  -78.75 78.75 218.8986441494058  -78.75 78.75 235.3475370181373  -1102.5 -315 223.4106832469675  -1260 -315 223.1927423963426  -1102.5 -157.5 223.4577467551458  -1260 -157.5 223.1927423963426  -945 -157.5 223.9214880162951  -787.5 -157.5 224.9571556152194  -708.75 -157.5 203.8616416443367  -708.75 -236.25 203.3439664354656  -630 -157.5 205.2760777719652  -630 -157.5 227.6982371771848  -236.25 -157.5 235.5369983911953  -236.25 -236.25 229.5600047605465  -157.5 -157
[...]
<PointData  Vectors="velocity"> 
<DataArray  type="Float64"  Name="velocity"  NumberOfComponents="3" format="ascii">7.7827543216982233e+00 -5.2354111424479023e-02 -4.9009646761580913e-02  8.6584032169306919e+00 -7.2023050995403005e-03 2.0427553423415035e-01  8.6234488226212243e+00 -8.3273136176257225e-03 2.4101994825776082e-01  8.0218969505291362e+00 1.5928733254662231e-01 5.7250389136892198e-02  7.9668839641340687e+00 -7.2495443705404505e-02 -7.2474944841012773e-02  7.3733691384670150e+00 -3.8710167168396370e-02 -5.3760178720527907e-01  8.1369643224063246e+00 8.9807965689306712e-02 1.8212599548453300e-02  7.4153004924523014e+00 -4.0736118737801648e-02 -3.9499273704221677e-01  8.0228160110454390e+00 8.3867647557544570e-02 1.2885887981626175e-02  8.0613382380016496e+00 -1.2824008250173743e-01 -6.2087255774451539e-02  8.0068114084422763e+00 -1.2917128468287137e-01 -6.5915877687389143e-02  8.0189350658211414e+00 -3.5941597030840870e-02 -5.1631829050093649e-02  8.6559981424456858e+00 -6.4752430566670811e-03 1.3792523598237638e-01  7.6823104225731145e+00 -4.1672205872602425e-02 -2.7415811933421547e-01  7.4962026840534346e+00 -4.3883847042545623e-02 -3.3071578737720914e-01  8.1810791491826329e+00 6.5653907822920368e-02 -8.2896862588252348e-03  8.0867318808179007e+00 7.4056634594659845e-02 1.4551492317223572e-03  7.7381300319706092e+00 3.8118557001767502e-03 -2.5719359216537108e-01  7.7048963277700597e+00 5.0859510163397950e-03 -2.9084999750239376e-01  8.7210809657822708e+00 -2.9701241613099157e-03 2.9038199019006972e-01  8.0563789569477624e+00 -9.7415772283962504e-02 -6.7006548823478562e-02  6.1857866273671389e+00 6.3465678186879065e-02 -4.7487154737319737e-02  6.1824507054228581e+00 -4.8135039882753014e-02 -1.6351322589179939e-02  6.3195995030295231e+00 -4.4292925275528749e-02 -3.8883482683599396e-02  6.9082554425697884e+00 -1.5791271802727203e-02 -6.4480549826374134e-02  6.9840939105987303e+00 8.6907357744451977e-02 -3.5978689502276305e-02  6.8056721079400351e+00 -8.6283709927172866e-02 -4.1197378156676484e-02  6.1361947577052511e+00 -1.2470500318592398e-02 4.4840396773173523e-02  6.7547293303961320e+00 -5.4799190381571326e-03 1.9190127042868137e-02  6.1128298046009553e+00 -1.5088440860653713e-02 3.6469778061375108e-02  6.7815708732863715e+00 8.8019297244125681e-03 5.2049646548130990e-03  6.3445725359351419e+00 0.0000000000000000e+00 -2.0663618870850716e-02  6.8371671960012899e+00 0.0000000000000000e+00 -5.3597377697636686e-02  6.1420270122236191e+00 0.0000000000000000e+00 -3.2346370621678965e-04  6.7069856147672002e+00 0.0000000000000000e+00 -3.4055734586366168e-02  6.4759408453052032e+00 0.0000000000000000e+00 -2.8357084414625203e-03  6.8620491408494670e+00 0.0000000000000000e+00 -2.8329036545169727e-02  8.6776671030181252e+00 -8.2118347194895559e-03 1.0688500595363497e-01  7.5745155787075493e+00 -6.0553545454520488e-03 -5.1383064398891481e-02  7.5200137912083491e+00 -9.5878748774987962e-02 -3.8400266265002515e-02  7.4548645480109830e+00 -3.4450277657965293e-03 7.2065197649310783e-03  7.5490705120823032e+00 2.1567622415687236e-02 -4.6757763365011676e-03  7.5609496123572395e+00 0.0000000000000000e+00 -4.6260057566434393e-02  7.4969848079343162e+00 0.0000000000000000e+00 -2.9978652493387589e-02  7.5510166580905507e+00 0.0000000000000000e+00 -2.8869754910024532e-02  7.9844400149497794e+00 1.2271643387040166e-03 -7.7433668477208438e-03  8.0313482210927827e+00 -8.3713396512650556e-02 -3.5116314119154203e-02  8.0902079266905798e+00 2.0863665197106810e-02 -1.1338068007034402e-02  8.1011718529490171e+00 0.0000000000000000e+00 -3.8305170477798960e-02  8.0600314050432953e+00 0.0000000000000000e+00 -2.6216692227183855e-02  8.0711469531670783e+00 0.0000000000000000e+00 -2.4488717920740116e-02  8.4070946330686844e+00 0.0000000000000000e+00 -5.7043660954920966e-03  8.4055364244393438e+00 0.0000000000000000e+00 -1.2518795759787201e-02  8.9750751170740770e+00 -1.6962393581925444e-03 -6.9346892882076478e-03  9.1280821932471170e+00 2.2313159271582599e-02 0.0000000000000000e+00  9.1200482302465442e+00 0.0000000000000000e+00 0.0000000000000000e+00  9.1232629319475649e+00 0.0000000000000000e+00 0.0000000000000000e+00  8.9778597055099674e+00 0.0000000000000000e+00 -8.5346942623899524e-03  0.0000000000000000e+00 0.0000000000000000e+00 0.0000000000000000e+00  7.5901707489636872e+00 0.0000000000000000e+00 0.0000000000000000e+00  7.5901707489636872e+00 0.0000000000000000e+00 0.0000000000000000e+00  6.8419451944271135e+00 6.0735444023546074e-02 -2.2141567314573710e-01  4.3238271078006312e+00 -7.2250705697378764e-02 1.8650780446178725e-02  4.8094354166754538e+00 -2.0277878727577896e-02 2.6517275431547877e-02  4.7140293786258072e+00 1.9622373201880927e-02 6.1596935606327799e-02  6.5268363356048651e+00 1.5159822528584471e-02 -8.1642467594796223e-02  6.6151355082254053e+00 -1.1419178874734310e-02 -9.9544066058874128e-02  6.5577315214324887e+00 -5.8209722478431335e-02 -1.4162530605575860e-01  5.2448608001355081e+00 -3.8654027454509930e-02 -2.4974349290211115e-03  5.8510884642048451e+00 -1.4174063393492873e-02 3.0563701527701145e-02  5.3886699148039572e+00 -1.4529217048321687e-02 9.6036402635116175e-02  5.8477513429926047e+00 -1.0159890213193634e-02 -4.2216839883831375e-02  5.3005677313896653e+00 -9.3503092723994652e-03 -1.3388226977768373e-03  5.1922246676193380e+00 5.2904894356311002e-02 2.9028907270351709e-02  5.8599314359986154e+00 4.2570602515738729e-02 -2.0042861243727748e-02  6.5817038308781965e+00 3.7459605011660894e-02 -2.7477288055798379e-02  5.8186160616814986e+00 -1.7867399752006012e-02 -2.4590494652273760e-02  5.9092944995782508e+00 -3.2318366097559892e-02 -4.4537595255349137e-02  6.6221057086409658e+00 -2.2722406147763004e-02 -4.5389320988282189e-02  6.5596995791818982e+00 -5.9528255454052697e-03 -5.3587643606393807e-02  6.6138745841713797e+00 -1.0926109839940355e-02 2.9093639256915813e-02  5.7178883706426005e+00 -4.5088342143927984e-03 -1.1878292871703316e-03  5.5835110755103665e+00 -4.9227051195342333e-02 -1.5878901528757407e-02  6.1259123526704204e+00 -8.3701933412339245e-03 -6.2153229788869918e-02  5.5875782922156976e+00 -9.0639610687942816e-03 -3.9429259116888632e-02  6.1005208118956284e+00 -9.2478931729536827e-03 5.3657149750353399e-02  5.7710944202261540e+00 -7.5798542237380312e-03 1.1890023201139464e-01  5.5942018327442513e+00 5.6885749793568322e-02 9.2747476980174631e-03  6.2143613058370573e+00 4.8478803390595473e-02 -1.9787949391171455e-02  6.8738576995527723e+00 4.6036531002600786e-02 -3.6528711801483434e-02  6.8286171991272147e+00 -3.1256339664926754e-02 -5.5623088600551228e-02  6.7859944481828105e+00 -3.9700901130895559e-03 -6.8594576393619100e-02  6.7511456957343094e+00 -8.6122234002167768e-03 3.0640109388482595e-02  5.9692855554589155e+00 -1.4541024601779338e-02 -2.0256047554964594e-02  5.3877761072013985e+00 -1.0850230816400470e-02 2.7681086606047997e-02  6.6751789231857828e+00 -8.3455708155025007e-03 -2.5072463609869578e-02  6.8579236435670481e+00 -9.1183234670768679e-03 4.6717930391263533e-02  6.4361664531428993e+00 -1.2033487914182749e-02 1.0824299880292479e-01  6.0765514312787294e+00 3.3793085424597823e-02 5.0940111985164724e-02  6.7522094086397466e+00 -3.9414516533275379e-02 -2.5006966813321679e-02  7.1472997433373013e+00 -2.5361853819214977e-02 -1.6994140696360710e-01  6.8661086974711028e+00 -2.3513090468001586e-02 -1.7492794648418497e-01  7.1830545797424250e+00 6.4183568497082122e-02 -1.3752717832223383e-02  7.4730145758815443e+00 6.4452098784282236e-02 -2.1947625636700548e-02  7.7679924540588257e+00 5.5950724939629340e-02 -2.2254043025180307e-02  7.5427908220947018e+00 -2.6799136910750299e-02 -3.6619190475469431e-02  7.5098684518758656e+00 -2.4900713619494988e-02 -1.3005676581137623e-01  7.3626356057861582e+00 -1.1360347325227393e-02 3.1514255371487637e-02  7.2233713199954384e+00 3.7394670784578164e-02 -3.1309027730737449e-03  6.8129835032219681e+00 -3.3496567993331033e-02 -2.6137376882557319e-02  6.2621781483827457e+00 -3.6902916847549483e-02 4.6123192818048884e-04  7.3179306161858557e+00 -3.4379209208097408e-02 -2.6273507939484620e-02  8.1861270261011985e+00 -1.1320017826702333e-02 9.3701053095659778e-02  8.0718515694650197e+00 -1.4754632578710987e-02 1.3835018794343509e-01  7.5718912764726394e+00 9.9593062307936325e-02 5.1332328915121080e-02  8.2822250727189530e+00 -1.2458413562464925e-02 6.8955511655197199e-02  7.9644058264796964e+00 1.0433514823718845e-01 1.6742373881083690e-02  7.9087816987728523e+00 -8.2904445619818856e-02 -3.9582071661988079e-02  7.7753749350832368e+00 -8.7968034710130649e-02 -3.0989761536308592e-02  8.0300613054964867e+00 -8.0224304521896342e-02 -3.2911766472567418e-02  6.6439829182054337e+00 -4.8439518797598981e-02 -1.9764473468708266e-01  8.1836115674510932e+00 4.1170799926593692e-02 4.0641421751015372e-02  8.0462275942841259e+00 -2.2332988413541147e-02 3.7898157472110235e-02  7.9945923840508630e+00 0.0000000000000000e+00 0.0000000000000000e+00  7.9945923840508630e+00 0.0000000000000000e+00 0.0000000000000000e+00  7.9504457828988935e+00 3.9083796129180892e-02 3.5150455492821607e-02  8.1020160040270763e+00 -3.4327316819640623e-02 4.6691468868053303e-02  7.9945923840508630e+00 0.0000000000000000e+00 0.0000000000000000e+00  7.8908734943713839e+00 -4.8755834542626629e-02 2.2791788223326722e-02  6.7288658196603244e+00 -4.0312965132934878e-02 -2.0246376653015366e-01  7.6277161411306205e+00 4.0042511641040425e-02 -2.1542749220716591e-02  7.3633478387623077e+00 -3.5700111648387357e-02 -8.0320281885374059e-02  7.7995961952412420e+00 -1.9491132037085884e-02 -3.9520832984748122e-02  8.0494868248417415e+00 -1.3922778618571581e-02 -3.7379720484507779e-02  7.7576326720790565e+00 -2.0686985000094426e-02 -4.0593778043026309e-02  7.9560164286925730e+00 3.9127014237644808e-02 -2.2227280730451965e-02  7.7067682094426075e+00 -3.2602229200803801e-02 -5.9194640718217943e-02  7.3306103092636690e+00 -2.4072163236571683e-02 -5.2093388887385454e-02  8.1192238986119776e+00 9.0298536696451825e-02 -7.6710958453490800e-03  7.7684451498824449e+00 -4.6242666896081148e-02 -8.4825823177480872e-02  8.1305503344776344e+00 -2.5226471292981029e-02 -4.7048743393144389e-02  8.2481222881083465e+00 -1.5066107434060975e-02 -4.6645151126948052e-02  8.2451684688592000e+00 8.5374648540809658e-02 -1.8374000780749609e-02  7.9152214856108225e+00 3.9803319029967602e-02 4.5097353498890595e-02  7.7373832463568171e+00 1.6179548118240555e-02 3.6379306043173368e-02  7.7899427925721172e+00 -7.7186669542957213e-03 3.2668601365436360e-02  7.2633196296955944e+00 -9.5697501528110695e-03 1.5463178588598201e-02  7.1739118658813306e+00 -4.1024000748291602e-03 -5.9789574414052658e-02  7.1511563737900588e+00 3.2790000325765699e-02 -5.8919851776331848e-02  7.6643416028956697e+00 3.0607422954022735e-02 -5.7957329070114680e-02  7.2429194753192245e+00 -1.8173189191162724e-02 6.0330775344575776e-03  7.1826430021712042e+00 -1.8994007744246533e-02 -7.1190597678642123e-02  7.6892592931960513e+00 -1.6074955890684386e-02 -6.2826529853141772e-02  7.6578015718580037e+00 -1.0897172910356210e-03 -4.7793378984924223e-02  7.7130887775035131e+00 -7.6084005658381719e-03 -3.1648886613799387e-02  7.1822606297296714e+00 1.7524489128447086e-04 1.1331491085601391e-02  7.3217773696765889e+00 -2.3669491099330125e-03 -6.2571541307664874e-02  7.3526731901551559e+00 -8.1153314226664192e-03 6.7016696704669566e-03  7.3633754608487010e+00 3.7909236775443778e-02 -4.0623323726972201e-02  7.7740584603739755e+00 3.5318078966042159e-02 -3.5342435221114625e-02  7.7077589626241423e+00 1.5986137890579989e-03 -5.1178020158024813e-02  7.7601408072432303e+00 -5.9601548992250768e-03 7.1103327507250390e-03  7.7483862754821740e+00 -3.0798384244417318e-02 -2.7956803922591877e-02  7.2583941517928565e+00 -1.1563058127020206e-02 -4.2875837758857588e-02  7.7105386122753057e+00 -8.4980348544083772e-03 -3.1171604895579883e-02  7.7671259637419734e+00 -1.0483233328419911e-02 1.8733091858445738e-02  7.7365904952940951e+00 -2.5881115114582964e-02 -1.0639375806359280e-01  7.9402510893141063e+00 4.9887473703824570e-02 -3.0509484849519829e-02  8.1381819425027153e+00 4.3802835248863428e-02 -3.0697098706648395e-02  7.9708323084060879e+00 -2.2544937925506440e-02 -8.1755157031759590e-02  8.0313109761578225e+00 -1.0042979861210959e-02 6.1007653419639964e-03  7.6693806714942356e+00 -3.2294493922744603e-02 -3.9750808801293308e-02  7.9697668424309605e+00 -2.9497189593428511e-02 -3.1041280975738019e-02  8.3913097899815128e+00 -1.3248217830573880e-02 5.3606597744435533e-02  7.8730535464424634e+00 -4.0947624567725445e-02 -2.0032764670859129e-01  8.2527402365887230e+00 5.0856925659700854e-02 -1.7943811170697280e-02  8.3321518853315411e+00 4.2495769360984009e-02 -2.3587644828583419e-02  8.0313156066327664e+00 -3.6680679344870633e-02 -1.5265414924219836e-01  8.4307267629203704e+00 -1.2789893003777060e-02 2.2082649956744617e-02  8.1580353698328025e+00 -6.5942478362933543e-02 -3.6615758584062824e-02  8.2626617451777431e+00 -5.8030152692218180e-02 -3.1244156188119855e-02  8.6405255214165528e+00 -9.3650658228236986e-03 6.0602181245909457e-02  8.3293798106876071e+00 -6.5540399457585011e-02 -4.1002929925824709e-02  8.2539404845593385e+00 -8.8489177960009782e-02 -4.4663054932650131e-02  8.2362764094008103e+00 1.5213516487897673e-02 -8.5760916758348509e-03  8.1557917410634744e+00 -2.0746757976025498e-02 -3.8719557285557204e-03  8.2311640395054937e+00 0.0000000000000000e+00 0.0000000000000000e+00  8.2311640395054937e+00 0.0000000000000000e+00 0.0000000000000000e+00  8.2892840896003666e+00 2.8633696284777785e-02 -2.8469414643344796e-02  8.2095191215729244e+00 -1.2680291859123734e-02 -9.5547068089744842e-03  8.2311640395054937e+00 0.0000000000000000e+00 0.0000000000000000e+00  8.2204526511149965e+00 -3.7289743490082315e-02 -2.1222045688056669e-02  8.2906868135188070e+00 4.7249893546277583e-03 -5.9822233504425344e-02  8.1804098121320070e+00 3.7576239082118039e-02 -2.7132055701566613e-02  7.9862970159093578e+00 -3.5044635224138733e-02 -4.5329550355840041e-02  8.2140422068805492e+00 -7.5447887183805410e-03 -3.4357381111124755e-02  8.3512853995364917e+00 -1.8651062736268708e-03 -3.1170870711486533e-02  8.0336000576488491e+00 -1.6195565680285282e-02 -3.1943209750100052e-02  8.2544578042613850e+00 -1.3933597078440878e-02 -2.3852302861855388e-02  8.3363309979795037e+00 3.6699962002359421e-02 -2.6882260423119482e-02  8.3486316845860049e+00 7.2618604824221167e-02 -3.1210263537660696e-02  8.1303539815535064e+00 -4.3373610199851177e-02 -4.1839422265282304e-02  8.3490201867106393e+00 -6.6849736010811973e-03 -4.1721834627252249e-02  8.4338615161464858e+00 6.5425469102812356e-04 -4.0057734430184795e-02  8.4134170641539630e+00 6.5844134749548824e-02 -3.6429187051452420e-02  8.2031776682723034e+00 2.8344307402109106e-03 -1.2642122799298739e-02  8.2311640395054937e+00 0.0000000000000000e+00 0.0000000000000000e+00  8.2608790822442018e+00 3.6374635882701352e-02 -1.3111357213899950e-02  8.2447847527081546e+00 1.2601086335831737e-02 -6.7593245709744745e-02  8.0791009293024239e+00 -6.6818397272380521e-03 -1.8283319567685617e-02  8.0113881843403547e+00 7.4048512000105039e-05 -1.8417281817064781e-02  7.9812347356429294e+00 2.6338867258346617e-02 -1.3047778894453183e-02  8.2163794608275005e+00 2.4323311064611053e-02 -4.8833770205939722e-03  8.0049244172960865e+00 -1.3475470421896386e-02 -1.5624569077496110e-02  8.2406903853656512e+00 -9.6134325110659811e-03 -2.3191821918199748e-03  8.2154218918960797e+00 4.0098647500345754e-03 -1.9440099448350037e-02  8.2662380009204401e+00 -3.1916490145588016e-03 2.1989615421198962e-02  8.0225750541529308e+00 -4.6598449733245752e-03 -6.1733609393970108e-02  8.0973658009139111e+00 -3.9343016427047101e-03 4.4276783132025706e-03  8.0114758757356519e+00 2.5175061169269010e-03 -3.8844068253694131e-02  8.0343560698591290e+00 2.8491679637460993e-02 -3.4965855387993142e-02  8.2391823199358161e+00 2.5081973537942524e-02 -2.9298136035705198e-02  8.2015429426737114e+00 5.3698282619557541e-03 -2.7658616557144904e-02  8.2718763224528811e+00 -5.9855617077960311e-04 -1.0065983674635270e-02  8.0162827099942984e+00 -1.1945246117276848e-02 -2.4269498122823033e-02  8.2204700288731019e+00 -9.8310625196593188e-03 -2.6913008495725227e-02  8.2549090963342735e+00 -9.2250069126212017e-03 -8.3933855274594756e-04  8.1456007883073553e+00 -2.3001014018277532e-02 -5.4760185334500625e-02  8.2532433441767417e+00 3.4118040612236368e-02 -3.2742239657505015e-02  8.3598662631393044e+00 2.8852199393331689e-02 -3.1056810457556854e-02  8.2702414281564955e+00 -1.8453994672833918e-02 -3.9616989860045006e-02  8.3661161196525882e+00 -7.2690207036384897e-03 -9.8758811536961214e-03  8.1733618599994635e+00 -2.8113759334023911e-02 -3.3625934856517603e-02  8.3196830872067018e+00 -2.4070041632900517e-02 -2.6442570306045216e-02  8.5007647198706096e+00 -1.3715262434261520e-02 1.5566938883831458e-02  8.1918137000375442e+00 -3.4754841600751624e-02 -1.0007782604974354e-01  8.3935712683977890e+00 3.1575577133965846e-02 -2.9998119985954655e-02  8.4516027194026808e+00 2.5201594021364397e-02 -3.1371610495107186e-02  8.3006102920969376e+00 -2.9758334569371939e-02 -6.9220253216741537e-02  8.5090087133710153e+00 -1.2458231969606067e-02 -7.5701265690313419e-03  8.3507305738431459e+00 -4.9270624722676695e-02 -3.3985114910585527e-02  8.4170351015405398e+00 -4.1066927664665978e-02 -2.9038494276418029e-02  8.6338546086748167e+00 -1.1783446735149547e-02 3.8629091642311153e-02  8.3939509778363970e+00 -5.4709788508036344e-02 -3.5913299824116805e-02  8.6034759411097284e+00 -1.2972247662694730e-02 1.0181618179971728e-02  8.4451507909711090e+00 -4.0206627660675801e-02 -3.2276552331286408e-02  8.4762381613747628e+00 2.4486492977037318e-02 -3.4673055560017790e-02  8.4333127092794449e+00 6.2456146406120929e-03 -1.5323730559328812e-03  8.3990143459052504e+00 0.0000000000000000e+00 0.0000000000000000e+00  8.3990143459052504e+00 0.0000000000000000e+00 0.0000000000000000e+00  8.4308632433780950e+00 2.0613316636021433e-02 -1.0510577978649072e-02  8.4206969212718317e+00 -2.8295160867950978e-03 -2.2743536640953397e-03  8.3990143459052504e+00 0.0000000000000000e+00 0.0000000000000000e+00  8.3703736103608968e+00 -2.5189154203203570e-02 4.8544694163852398e-03  8.4424789530920794e+00 1.5995929014096043e-02 3.2130762364196000e-02  8.4052938427937303e+00 -3.0379529448823690e-03 -8.4243525031993903e-04  8.3990143459052504e+00 0.0000000000000000e+00 0.0000000000000000e+00  8.4155234825498297e+00 2.7907120400716100e-02 4.7096600185086334e-04  8.3918497152564715e+00 3.6546060375377931e-03 2.2783715275710353e-02  8.3814122814684939e+00 -1.2823068518262942e-03 1.1848402492428335e-02  8.3353599076090514e+00 5.7738064066072542e-03 -2.5519994080729837e-02  8.3064045550037040e+00 1.6559922989085395e-02 -3.4987809759492491e-02  8.3921623571090027e+00 1.3256452908329077e-02 -2.7349141005768223e-02  8.3341808223592064e+00 -6.7135693249939839e-03 -3.0600453196024616e-02  8.4212873180006866e+00 -2.2455572525698448e-03 -2.3930182566150832e-02  8.4195361146076877e+00 8.2267771452884282e-03 -1.0289990318582541e-02  8.4219591682916075e+00 1.8805460824397480e-03 -3.2025089939290298e-02  8.3277324584192449e+00 -1.3163636858502496e-02 1.8759106275230374e-02  8.3388459596271254e+00 5.2553200864100353e-03 -1.5521598183899201e-02  8.4014948417413695e+00 1.9136998693632225e-03 -1.3685637981252403e-02  8.3455292209060321e+00 1.7267292590679582e-02 -2.2886963778043928e-02  8.4259796834645790e+00 1.3230635513838433e-02 -1.9682076175044954e-02  8.3702366365382961e+00 -9.6556438134539051e-03 -1.2944260891678737e-02  8.4568330273727170e+00 -7.2654201019836306e-03 -1.2793705803014843e-02  8.4180060464503068e+00 5.2693021816579300e-03 -1.4652564066254403e-02  8.4629912662438720e+00 3.9048295348469088e-03 -1.4343044133607366e-02  8.4410604467408259e+00 -8.7041397535604741e-03 -1.5315275933420993e-02  8.3356448132586269e+00 -1.3796003927417441e-02 -2.4266546380648946e-02  8.4136388316922517e+00 -1.1695402627339611e-02 -1.6389396095110014e-0