<?xml version="1.0"?>
<VTKFile type="UnstructuredGrid"  version="0.1"  >
<UnstructuredGrid>
<Piece  NumberOfPoints="2108" NumberOfCells="10176">
<Points>
<DataArray  type="Float64"  NumberOfComponents="3"  format="ascii">0 157.5 121.2840038101008  0 157.5 131.7528782300064  0 78.75 136.9571857724786  -78.75 78.75 135.7334319646444  0 157.5 143.0251160240227  0 78.75 148.9142598450925  -78.75 78.75 147.7048341824799  78.75 157.5 128.0225175266259  78.75 157.5 118.7092542792569  78.75 78.75 135.7333530758101  157.5 157.5 108.1689131873183  157.5 157.5 118.9907383038534  157.5 157.5 130.8518126039432  78.75 157.5 139.3212812506579  78.75 78.75 147.7048394693184  472.5 157.5 2.777592766701777  551.25 157.5 24.14994846191765  551.25 157.5 0.1555332132696566  551.25 78.75 24.54891921712017  551.25 78.75 0.3249179563284444  630 157.5 0.002053533747214731  630 157.5 23.09146185493789  630 157.5 46.14662775874735  472.5 157.5 27.80613908270345  472.5 157.5 52.3799473494058  551.25 157.5 47.96014331383041  787.5 157.5 7.96278903925085e-10  708.75 157.5 22.80718286669356  708.75 78.75 22.81245563344949  787.5 157.5 45.10874540125485  78.75 236.25 110.6026991225479  78.75 236.25 99.27197720492742  157.5 236.25 97.02092180800445  157.5 236.25 84.2134382994756  157.5 315 48.55065037082936  157.5 315 67.97402507528125  157.5 315 87.46977975460378  157.5 236.25 111.6008610069528  78.75 236.25 123.8220541500218  0 236.25 103.8723620970818  0 315 68.43814498819684  78.75 315 79.84521929370159  78.75 315 63.25993645349318  0 236.25 114.0088451843409  0 236.25 126.1798958026035  0 315 101.2181546043703  78.75 315 97.11219430440326  0 315 84.559366072985  315 315 10.96683432468415  315 315 35.85916786758879  315 236.25 51.58978888465562  236.25 236.25 75.94426189526136  315 315 60.14884622247096  315 157.5 87.46981747157754  315 236.25 73.75565598241508  236.25 236.25 94.21975906896785  236.25 157.5 111.6008908930686  236.25 236.25 58.19536489941795  236.25 315 51.58977814929186  236.25 315 28.3936573525129  236.25 315 73.75563447965619  472.5 236.25 25.98772812688644  472.5 236.25 1.008340267998404  393.75 236.25 33.3225462976806  393.75 236.25 8.005774810135152  472.5 315 0.1997764131667678  472.5 315 24.13157751890876  472.5 315 47.91254724404196  472.5 236.25 50.17565117114907  393.75 236.25 57.55036481352597  393.75 157.5 65.55440080843235  393.75 315 27.63210939915502  393.75 315 2.289802552548269  393.75 315 52.18726193427435  551.25 236.25 23.59896108374698  551.25 236.25 0.04141471220430604  630 236.25 22.98555589553795  630 236.25 0.00038239969538649  630 315 2.975518499689911e-05  630 315 22.80971088418704  630 315 45.60626545498917  630 236.25 45.92418863309655  551.25 236.25 46.99920985970454  551.25 315 23.23108420358913  551.25 315 0.005316696856539425  551.25 315 46.40777420403187  708.75 236.25 22.69685516210027  708.75 236.25 5.167932217997606e-07  787.5 315 1.470643051781906e-12  787.5 315 44.99472940979952  708.75 236.25 45.38163949744778  708.75 315 22.6476010272612  945 157.5 0  945 315 0  945 315 44.78636983989634  945 157.5 44.82454592977874  1102.5 157.5 0  1102.5 315 0  1102.5 315 44.69275147789409  1260 315 0  1260 315 44.63854847926853  78.75 393.75 48.42306441224567  78.75 393.75 25.14281857983035  157.5 393.75 41.63892024293528  157.5 393.75 16.96549637722454  157.5 472.5 2.777592766701777  157.5 472.5 27.80612953499467  157.5 472.5 52.37992182092072  157.5 393.75 65.55435763658102  78.75 393.75 70.92288656199938  0 393.75 28.3936573525129  0 472.5 5.733792171117909  78.75 472.5 30.77169291309178  78.75 472.5 4.817868252909133  0 393.75 51.15367928424055  0 393.75 73.73443784782026  0 472.5 55.51373168133399  78.75 472.5 55.11736803103726  0 472.5 30.90288936333175  236.25 393.75 33.32253559921202  236.25 393.75 8.005774810135152  315 393.75 27.63210678778825  315 393.75 2.289802552548269  315 472.5 0.1997764131667678  315 472.5 24.13157422235928  315 472.5 47.91254018363266  315 393.75 52.18725743641866  236.25 393.75 57.55034572204505  236.25 472.5 25.98772109232542  236.25 472.5 1.008340267998404  236.25 472.5 50.17563760703118  393.75 393.75 24.47876826999271  393.75 393.75 0.3249179563284444  472.5 393.75 23.43127345347454  472.5 393.75 0.01768084513047457  472.5 472.5 0.0005403263583359449  472.5 472.5 22.9696962550615  472.5 472.5 45.91958182314615  472.5 393.75 46.73808416212465  393.75 393.75 48.29435031952882  393.75 472.5 23.43127211111732  393.75 472.5 0.01768084513047457  393.75 472.5 46.73808149084104  551.25 393.75 22.92917331872158  551.25 393.75 0.0002693444579619578  630 393.75 22.70146928747669  630 393.75 7.918817643767784e-07  630 472.5 5.571642168467061e-09  630 472.5 22.59059569647399  630 472.5 45.17642734690732  630 393.75 45.38940140877785  551.25 393.75 45.82633729990257  551.25 472.5 22.74804854174356  551.25 472.5 4.162226405875213e-06  551.25 472.5 45.48442468091184  708.75 393.75 22.55935112528606  708.75 393.75 2.925370917727932e-10  787.5 472.5 6.938893903907228e-18  787.5 472.5 44.87285347560228  708.75 393.75 45.11389150157192  708.75 472.5 22.51180417460058  945 472.5 0  945 472.5 44.7424049527102  1102.5 472.5 0  1102.5 472.5 44.67809226508051  1260 472.5 0  1260 472.5 44.63854847926853  78.75 551.25 24.54889834739666  78.75 551.25 0.3249179563284444  157.5 551.25 24.14993629251713  157.5 551.25 0.1555332132696566  157.5 630 0.002053533747214731  157.5 630 23.09145140835139  157.5 630 46.14660655040255  157.5 551.25 47.96012053196492  78.75 551.25 48.38593930757506  0 551.25 0.4114169189615289  0 630 0.00723125198117304  78.75 630 23.27582404887061  78.75 630 0.005316696856539425  0 551.25 24.81582709912671  0 551.25 48.94324723098521  0 630 46.431177799065  78.75 630 46.4335631439312  0 630 23.24485546288915  236.25 551.25 23.59895416006493  236.25 551.25 0.04141471220430604  315 551.25 23.23107996666653  315 551.25 0.005316696856539425  315 630 2.975518499689911e-05  315 630 22.80970654019275  315 630 45.60625685567723  315 551.25 46.40776580979544  236.25 551.25 46.99919555159573  236.25 630 22.98554926659267  236.25 630 0.00038239969538649  236.25 630 45.92417497410523  393.75 551.25 22.92917085631253  393.75 551.25 0.0002693444579619578  472.5 551.25 22.74804753480814  472.5 551.25 4.162226405875213e-06  472.5 630 5.571642168467061e-09  472.5 630 22.59059459747335  472.5 630 45.1764250404233  472.5 551.25 45.48442266561187  393.75 551.25 45.82633236415643  393.75 630 22.70146692781667  393.75 630 7.918817643767784e-07  393.75 630 45.38939660783933  551.25 551.25 22.60746522957004  551.25 551.25 1.432243812438116e-08  630 551.25 22.51969414523757  630 551.25 7.565774395867919e-12  630 630 1.366962099069724e-15  630 630 22.45562395734079  630 630 44.90866618815177  630 551.25 45.03495211796446  551.25 551.25 45.2064469486352  551.25 630 22.51969369071645  551.25 630 7.565774395867919e-12  551.25 630 45.03495119992458  708.75 551.25 22.45612489489574  708.75 551.25 4.024558464266192e-16  787.5 630 0  787.5 630 44.78240011689866  708.75 551.25 44.91049095750213  708.75 630 22.42369922460221  945 630 0  945 630 44.70531720016749  1102.5 630 0  1102.5 630 44.66484324644114  1260 630 0  1260 630 44.63854847926853  78.75 708.75 22.81244217402018  78.75 708.75 1.374296705193567e-05  157.5 787.5 7.96278903925085e-10  157.5 708.75 22.80717388570059  157.5 787.5 45.10873064344595  78.75 708.75 45.60266962084222  0 787.5 5.571642168467061e-09  0 708.75 22.88882398163799  0 787.5 45.15784409797858  236.25 708.75 22.69684927017664  236.25 708.75 5.167932217997606e-07  315 787.5 1.470643051781906e-12  315 708.75 22.64759715600576  315 787.5 44.99472288391265  236.25 708.75 45.38162764714342  393.75 708.75 22.55934886309947  393.75 708.75 2.925370917727932e-10  472.5 787.5 6.938893903907228e-18  472.5 708.75 22.51180295070786  472.5 787.5 44.87285096074464  393.75 708.75 45.11388695075076  551.25 708.75 22.45612432579474  551.25 708.75 4.024558464266192e-16  630 787.5 0  630 708.75 22.42369901909475  630 787.5 44.78239936636531  551.25 708.75 44.91048981823102  787.5 787.5 0  708.75 708.75 22.40317300021502  787.5 787.5 44.71250534052456  945 787.5 0  945 787.5 44.67685043885285  1102.5 787.5 0  1102.5 787.5 44.65439710651119  1260 787.5 0  1260 787.5 44.63854847926853  157.5 945 0  157.5 945 44.82453776597382  315 945 0  315 945 44.78636585114275  472.5 945 0  472.5 945 44.74240318698084  630 945 0  630 945 44.70531652726714  787.5 945 0  787.5 945 44.67685027008336  945 945 0  945 945 44.65889399970151  1102.5 945 0  1102.5 945 44.64720758456415  1260 945 0  1260 945 44.63854847926853  315 1102.5 0  315 1102.5 44.6927496103965  157.5 1102.5 0  157.5 1102.5 44.70486527073565  472.5 1102.5 0  472.5 1102.5 44.67809137595341  630 1102.5 0  630 1102.5 44.66484288745094  787.5 1102.5 0  787.5 1102.5 44.65439697407579  945 1102.5 0  945 1102.5 44.64720755727248  1102.5 1102.5 0  1102.5 1102.5 44.64230488079592  1260 1102.5 0  1260 1102.5 44.63854847926853  315 1260 0  315 1260 44.63854847926853  472.5 1260 0  472.5 1260 44.63854847926853  630 1260 0  630 1260 44.63854847926853  787.5 1260 0  787.5 1260 44.63854847926853  945 1260 0  945 1260 44.63854847926853  1102.5 1260 0  1102.5 1260 44.63854847926853  1260 1260 0  1260 1260 44.63854847926853  0 157.5 155.7722358638175  0 78.75 161.6910260371159  -78.75 78.75 160.2524336626698  0 157.5 169.2201297654635  157.5 157.5 144.4447365417309  157.5 78.75 151.9571184726955  78.75 78.75 160.2524639161947  157.5 157.5 158.8049197246575  78.75 157.5 151.9570619873109  78.75 157.5 165.8172259005702  236.25 157.5 127.3791725158182  236.25 78.75 137.8877779382157  315 157.5 107.1146605065792  315 157.5 126.8403145870135  236.25 157.5 144.0774238619132  236.25 78.75 153.3151483991475  630 157.5 69.12290273365574  630 78.75 69.54775653621002  551.25 78.75 72.02583995213105  630 157.5 92.03351531868876  551.25 157.5 71.39466019370337  472.5 157.5 99.71489041565347  551.25 157.5 94.69947832726535  551.25 78.75 95.30767243901371  472.5 157.5 76.20
[...]
<PointData  Vectors="velocity"> 
<DataArray  type="Float64"  Name="velocity"  NumberOfComponents="3" format="ascii">8.0563789569477624e+00 -9.7415772283962504e-02 -6.7006548823478562e-02  8.1076193960426401e+00 -9.4035507775257210e-02 -6.6270699597115457e-02  8.7222321932508002e+00 -4.8213343170707490e-03 2.0724972457825100e-01  7.7381300319706092e+00 3.8118557001767502e-03 -2.5719359216537108e-01  8.1857775383518234e+00 -9.0905755894612125e-02 -6.8647095067753044e-02  8.7361382107227996e+00 -8.6179033048321904e-03 1.4249347227482120e-01  7.8991391177755066e+00 -1.0404161449274101e-03 -1.9822785572121482e-01  8.1735541760439236e+00 6.8179227604704629e-02 -4.7744132720147964e-02  8.1584761171067335e+00 7.5948484799209112e-02 -4.5101897298152560e-02  7.6499984810827648e+00 1.8922357719292676e-03 -2.7648499192730236e-01  8.0434293445784366e+00 -1.0354769245838333e-01 -1.2545398556203169e-01  8.0764824604642182e+00 -9.5541286624453575e-02 -1.1814256982747876e-01  8.1104617191826360e+00 -8.1313532647037695e-02 -1.1004427555821591e-01  8.2218900228933443e+00 4.1807963944384526e-02 -5.1589182164658264e-02  7.7772361228546893e+00 -3.0239407954957432e-03 -2.1974973001171585e-01  7.6473638487657389e+00 -1.6469620850543912e-01 -2.4675546899684131e-01  7.8087127057021286e+00 -1.2177913408054583e-02 -2.1037999791618245e-01  7.7458219094678213e+00 -8.5534580749212191e-02 -2.2129666363244072e-01  7.7496403915214218e+00 -9.5267061341076428e-03 -1.9486649507880993e-01  7.4644718759402000e+00 -2.1825510295465185e-04 -2.5471229643575172e-01  7.6866079565136802e+00 -1.2224245394123909e-01 -2.3902037024298517e-01  7.8492868083982845e+00 -8.1815445603410086e-02 -2.0887339831734353e-01  7.9078655689774964e+00 -7.3804711219981695e-02 -1.7866585590770515e-01  7.8238722546724393e+00 -1.1238218546948252e-01 -2.1325786207054051e-01  7.9153727161397889e+00 -8.9196777532914509e-02 -1.7928327002930886e-01  7.9121920241866643e+00 1.4541843089989509e-02 -1.8021122724849442e-01  7.9005185901693418e+00 -3.9368682933208284e-02 -2.2853738941277738e-01  7.7374381941238042e+00 -5.4938051883864344e-02 -2.1415013593583740e-01  7.6775188651877553e+00 -9.7710799501377638e-03 -1.8837799512462045e-01  7.9271748458568192e+00 -1.2304852828658135e-02 -1.9680802941251294e-01  8.1733174371613266e+00 -6.6037546416183521e-02 1.0570820356752335e-01  8.1527530906465646e+00 -5.7472844376580234e-02 1.4423310087813360e-01  7.4897611045101176e+00 -5.8315310638886966e-02 -3.3055060444856038e-01  7.3886478707662260e+00 -6.1936142555563206e-02 -4.0222783701656234e-01  7.6328586442065722e+00 -1.7740872139594266e-01 -3.7360814826021033e-01  7.7308679360234960e+00 -1.6532212074446420e-01 -3.0266367122088539e-01  7.8785408357420188e+00 -1.6383762338452679e-01 -2.4257596363578804e-01  7.6208216471171273e+00 -5.9244350066052956e-02 -2.6675129372734002e-01  8.2223993428837971e+00 -7.9692633268107521e-02 6.3002902500422869e-02  7.4708177806530669e+00 -2.3440432151995191e-02 -3.4696329044131713e-01  7.7171525964106822e+00 -8.7147175155385906e-02 -2.0938284278382568e-01  7.5359122836021042e+00 -1.5074457227006846e-01 -2.5580290979119819e-01  7.4147805702950169e+00 -1.7263850799405045e-01 -3.3913363993029305e-01  7.5276463913833336e+00 -2.1260984128366252e-02 -3.0961325950880453e-01  7.6813180179923233e+00 -2.9337509870720826e-02 -2.6343488725694930e-01  8.0394824834967604e+00 -1.2409812429287910e-01 -1.5866644963426016e-01  7.7501845799614930e+00 -1.4237516237158718e-01 -1.9131762109326755e-01  7.8605402167903824e+00 -1.0417958707367359e-01 -1.9238843824891039e-01  7.4440563330235809e+00 -2.6471132172148704e-01 -6.2928269656443836e-01  7.5342681772746287e+00 -2.2587472432871059e-01 -5.0728407773474959e-01  7.5900021092541561e+00 -1.5115561663327567e-01 -2.4180885144427045e-01  8.0859924304084405e+00 -1.0022667241896667e-01 7.0666577136585126e-02  7.6619093804577378e+00 -1.7581625606896056e-01 -3.9843581219451318e-01  7.9426113961665763e+00 -6.5288783626500257e-02 -1.5666729998923429e-01  7.6599451249435226e+00 -1.4147239847212903e-01 -1.7357472932427173e-01  8.0923182443546082e+00 -1.0463080158834419e-01 4.2054541768339386e-02  8.1060153182892165e+00 5.6150033832486061e-02 -9.1705159328506480e-02  8.1212436843982214e+00 -1.1201778913395981e-01 1.4524301774401963e-01  7.4306125058640964e+00 -1.6732214658883823e-01 -3.9699058567697965e-01  7.3600778447187407e+00 -2.2037133564900907e-01 -5.5957353057427894e-01  7.6137170475682785e+00 -1.1902394071314130e-01 -3.0172022881263461e-01  7.5227477453161962e+00 -1.9723568775330191e-01 -2.8681090899868356e-01  7.4901893770407684e+00 -2.1787531301749444e-01 -4.0101047560609576e-01  7.9683918300759604e+00 -1.6632140612927318e-01 -2.3932210429922954e-02  7.9552517151885453e+00 -2.0252007098164523e-01 4.1574946501629663e-02  7.3536880525040926e+00 -3.1166280884371900e-01 -6.7767157123558630e-01  7.4086778765056129e+00 -2.9725825357500346e-01 -5.4994197723984328e-01  7.4850578883761552e+00 -2.4981297266949934e-01 -4.3503067771673842e-01  7.5832403008113394e+00 -1.9319042247470414e-01 -2.2550843694263970e-01  8.0002662386503562e+00 -1.4746005862831837e-01 -4.9124764660283642e-02  7.9069140534209286e+00 4.2031754291790041e-02 -1.6148891860164208e-01  7.3917386493193229e+00 -2.4576908136231637e-01 -5.4983554285413894e-01  7.3138260556022923e+00 -2.5196653035161404e-01 -6.9370750342466725e-01  7.5561746765644555e+00 -1.9218410434954850e-01 -4.5807869812417273e-01  7.9867371802021836e+00 -1.9672643954251154e-01 -9.4650032441694940e-02  7.9849014653087584e+00 -2.1293085117462948e-01 -4.7001518201710953e-02  7.4801886053560054e+00 -1.8229250208586134e-01 -3.7210137910979818e-01  7.4399138082049525e+00 -1.9844299122024839e-01 -5.3683609222217066e-01  7.2649793693987856e+00 -3.8584803681870194e-01 -6.0557979703595921e-01  7.2827263324368783e+00 -3.7134626999559844e-01 -5.2030703074365237e-01  7.3754904440744209e+00 -3.7796543034528968e-01 -4.2447631668907654e-01  7.5278784221552391e+00 -1.6063469832800978e-01 -3.0141848148716432e-01  8.0328291335318109e+00 -1.8401988134460473e-01 -1.1392096031289427e-01  7.3118294787679190e+00 -3.0350458818374743e-01 -5.7365929442976660e-01  7.2566378093855022e+00 -3.0393348109098034e-01 -6.9917582695942881e-01  7.4350454289696373e+00 -2.5105228600567098e-01 -4.8434557123316047e-01  8.0347370033310455e+00 -2.0388118859403340e-01 -1.8601911084585079e-01  8.0144719920834966e+00 -2.1509782895168567e-01 -1.5142925045763608e-01  6.9669858706125538e+00 -4.2051969766658370e-01 -6.6562235076590748e-01  7.1898184240007561e+00 -4.0060709074259482e-01 -4.1830645988167220e-01  8.1050826486696170e+00 -1.9997728977476631e-01 -1.5547180381132028e-01  7.2018798277341123e+00 -4.8576108707585486e-01 -4.7701615041735496e-01  8.0461995272637861e+00 -3.2193021413471051e-02 -2.4155810482093423e-01  6.6770375716826322e+00 -4.7878677268677200e-01 -5.7971771720142717e-01  6.9195757279331467e+00 -4.5442758129810173e-01 -3.8042541517274747e-01  8.0113206871323914e+00 -2.4282796224447591e-02 -1.9222850805149838e-01  8.0619399462430881e+00 -5.1112153248393105e-02 -2.8558445416469025e-01  6.3781661047249276e+00 -5.0224675980443922e-01 -5.0125059012932949e-01  6.6773471604547785e+00 -4.7254430903849459e-01 -3.3018847540616270e-01  6.3128087583539392e+00 -5.0939222328444489e-01 -4.1741574256328262e-01  6.5863705454628425e+00 -4.8448861157623907e-01 -2.9273926761830116e-01  6.5647914473624036e+00 -4.5748546398614937e-01 -3.7487003858401546e-01  6.5222838904115701e+00 -4.9038332215614638e-01 -4.7519116079087637e-01  6.5337953551321659e+00 -6.7472138448017260e-01 -5.7117821937858482e-01  6.5338859666693718e+00 -6.0948009923765722e-01 -6.7349582210321535e-01  4.5537572210255908e+00 -4.4810822357977226e-01 -6.6244793319974893e-01  4.3361071338643278e+00 -6.2207411969609661e-01 -6.6905143950534218e-01  4.0323218311624629e+00 -8.6741169712438349e-01 -4.6052450221588692e-01  6.6367632903425671e+00 -6.8467211666213312e-01 -3.5643936433273599e-01  6.7856747084652440e+00 -4.1927223708899625e-01 -2.5337284734856236e-01  6.9534572146999603e+00 -5.0383101929289709e-01 -6.4424729202681474e-01  4.8047136004935682e+00 -4.7108251183621386e-01 -5.4073153315438804e-01  4.7216537260042637e+00 -4.3334034090677187e-01 1.6225516804636012e-01  4.8403605876786484e+00 -4.5408949076603350e-01 2.2576898635940137e-01  6.9434383099583599e+00 -5.4541602426419700e-01 -5.0952004589096467e-01  7.1062043253554510e+00 -5.8892556481227520e-01 -3.3712652160114498e-01  4.1997051522917364e+00 -6.8628828547728826e-01 -2.4073615476069241e-01  4.7873023998166877e+00 -4.5094803287688684e-01 7.9276911648663934e-02  4.4173036068411609e+00 -5.7634022445611188e-01 -4.2135029590556394e-01  6.2135672105896802e+00 -6.7793077675556979e-01 -6.0057745178906186e-01  6.1667382056258679e+00 -6.4648303517872319e-01 -6.7274020768741616e-01  6.1795008095470338e+00 -7.5292309501738397e-01 -4.6625748192150790e-01  6.1740299206164364e+00 -7.2703886125462025e-01 -5.2964285347003226e-01  4.3679313595884590e+00 -3.5248649029628426e-01 -7.6457319300691481e-02  4.1537305981165291e+00 -4.0155918786816497e-01 -8.6719074341696040e-02  3.9301484657502503e+00 -4.8976616629466185e-01 -6.9086971306442264e-03  6.2344811842540198e+00 -7.4611491843951994e-01 -3.5639679317087786e-01  6.3833418108892497e+00 -6.9827954668400583e-01 -4.1701015586482931e-01  4.4979649442351759e+00 -5.9233090456809800e-01 -2.9819955846935214e-01  4.5881122541946633e+00 -5.0839565218384197e-01 -2.0323886680661624e-01  4.2503518181240763e+00 -7.2813258817814441e-01 -1.1330933319202685e-01  5.7768924389107434e+00 -6.7991813149934566e-01 -5.1118792266983359e-01  5.7847740280578881e+00 -6.7460715219115741e-01 -5.9624366043364740e-01  5.6844804598994410e+00 -7.4821163996330176e-01 -3.3009478789243063e-01  5.7240992755303246e+00 -7.1360263762075238e-01 -3.6501453585258425e-01  4.1449773066603077e+00 -3.1186502176244674e-01 4.1036069660766485e-02  4.0439864491537554e+00 -3.6954202899154676e-01 -4.1248807466281144e-02  4.0061889228987404e+00 -4.7224083027334302e-01 -3.2579296100542637e-02  5.6885697510090214e+00 -7.1904432239356253e-01 -2.1958944967559693e-01  5.8686090835604716e+00 -6.7462078671899683e-01 -3.8226426994033080e-01  4.0621461621377497e+00 -4.9920286180799156e-01 -4.9614944488705202e-02  4.3397247624882089e+00 -4.6037762504130192e-01 -8.5243891179055606e-03  3.7941484748940373e+00 -5.7704499456928393e-01 4.3274267875877195e-03  5.3687370305427748e+00 -6.7331733731249821e-01 -5.8470720319873526e-01  5.3359804476698782e+00 -6.2255289711209583e-01 -6.6709250788260566e-01  5.4247941370704664e+00 -7.2770416524104231e-01 -2.2505773348056587e-01  5.4243384054297801e+00 -7.2459006854181007e-01 -2.7411739904314153e-01  4.0424818683478536e+00 -4.6987981127282080e-01 -1.4167323899679576e-01  3.7995412196604326e+00 -5.5542836001942397e-01 -1.1864281141049751e-01  3.6196418237874286e+00 -6.5278895215389143e-01 -1.5800167668861048e-01  5.5845505770261452e+00 -7.3963458610070409e-01 -2.0399466809575237e-01  5.5681150187917190e+00 -7.0816768237579331e-01 -4.5120693156831504e-01  3.9826858050117098e+00 -6.9409905434133023e-01 -5.3739595231193082e-01  4.1202724053781354e+00 -5.1625543954903119e-01 -5.0056029095687715e-01  3.3931243781013460e+00 -1.0363085327103800e+00 -4.6679129819502302e-01  5.0064917575390684e+00 -5.1535282946205008e-01 -4.9190354853779722e-01  4.9616072555961059e+00 -5.3253331784704994e-01 -6.0890531585049057e-01  3.6639048783812864e+00 -5.7276387185910005e-01 4.4064720674140817e-01  3.3971824281638403e+00 -7.8985088417835503e-01 2.7338568724815243e-01  5.2190565051851801e+00 -4.3910488627311445e-01 -4.0591606766000932e-01  3.8835550816795026e+00 -5.3444075880851871e-01 1.0752160982820715e-01  3.6659106485266628e+00 -5.5167906239476827e-01 3.9920364425252902e-01  3.6545046427256982e+00 -6.7969849007777972e-01 2.9959577352619393e-01  3.8427295504286230e+00 -4.9508831988388968e-01 4.1764494267725516e-01  3.9457912936140422e+00 -5.9082872353853855e-01 3.0745114217793623e-01  3.8891877880011809e+00 -4.6861288152042629e-01 3.7996781299012411e-01  4.0355150067016590e+00 -5.3483702567730262e-01 3.1683126946070139e-01  4.7491327827840237e+00 -2.6474805743360535e-01 6.0345191725813163e-01  4.7228266180308154e+00 -2.6684492522483871e-01 6.9195426487354550e-01  4.1916246876531558e+00 -2.2740744619256786e-01 -6.1150772900209649e-01  4.8914469032255106e+00 7.5138871996930479e-02 -6.8298876060254887e-01  6.4252700869213220e+00 6.4755373659260308e-03 1.4560475370770384e-01  6.5051342554380911e+00 -1.0585630369486261e-02 7.4693300992095979e-02  6.6290957488162618e+00 6.6210034059501922e-03 2.9557187242648278e-03  3.2736172653682316e+00 -6.5542554121414054e-01 -4.9448947639678797e-01  4.8987920980098085e+00 -2.7333659122952403e-01 3.5227273878645204e-01  4.5639585468290358e+00 -2.3696656455623043e-02 4.8414319513972159e-01  6.3644100476653671e+00 2.3699999718954413e-02 1.9556403408060349e-01  6.1156415534292172e+00 -3.2865088697769601e-01 1.1127676317263861e-01  6.1819198028470108e+00 -2.1867013595556770e-01 1.0723620518422337e-01  3.9938045613778659e+00 -3.0807745962853633e-01 4.6208063044927888e-01  3.6162620997223844e+00 -5.7830078035117327e-01 4.0660884612138010e-01  6.4217417957571135e+00 -2.5303785665285589e-01 1.5005209091850197e-01  6.2512857278160467e+00 -3.9753627679352144e-01 4.3065683646472487e-02  6.3764540782547749e+00 -1.2166815713295429e-01 1.7656447623428737e-01  4.1624610755882596e+00 -5.5341550416958207e-01 3.2494249917801904e-01  4.5470992843511828e+00 -3.2148974234727079e-01 5.4893792123446483e-01  4.2791642468785351e+00 -2.8150915910019353e-01 5.2987889201627292e-01  4.7110722669076610e+00 -8.4676430876462247e-02 5.9077778224499011e-01  6.4397062394937761e+00 -5.3133518269774582e-02 4.0476998936903213e-01  6.4367432161299707e+00 -1.9386800865621578e-01 3.8957295976105838e-01  6.4899956156752499e+00 -2.7685740811671300e-01 3.3565709272818189e-01  3.9683917745186870e+00 -5.1557485913020784e-01 5.3040051386192144e-01  3.6792014364039525e+00 -8.4036123261633267e-01 4.1992477382934201e-01  6.4983737080669686e+00 -2.4567284835835715e-01 5.8473572769046789e-01  6.4754005702530426e+00 -1.4744593787306071e-01 7.3539743935338342e-01  6.7016901182836071e+00 -3.0570563469968426e-01 4.9595444296360758e-01  4.2148948018653760e+00 -4.9653969696038558e-01 4.8284369359306523e-01  4.5233785243154587e+00 -3.8116385321117174e-01 5.5936363118061805e-01  4.7690078250677210e+00 -1.7764593322432262e-01 2.9913622722272615e-01  4.8978186803501202e+00 -1.3921186559439316e-01 3.9836263579416642e-01  6.5098344173071023e+00 -8.0674967088946600e-02 3.3663481243228049e-01  6.4755386911023285e+00 -1.5368698492734051e-01 2.7175895424603624e-01  6.5521451616314952e+00 -1.9206844785143548e-01 2.2510592664173371e-01  4.8038124555013733e+00 -2.9509332835388619e-01 2.1068000834466580e-01  3.9814500123753342e+00 -6.7212341895208383e-01 4.0745047294735154e-01  6.3968896190954432e+00 -2.1580167338004852e-01 4.5620838208400549e-01  6.5328874028460273e+00 -8.4220722832270042e-02 5.6357981999904205e-01  6.4391892937800783e+00 -3.4662230357236101e-01 3.4264774985891833e-01  4.2966522682918713e+00 -4.9832941092470784e-01 -1.8768219341871095e-01  4.6479338361351177e+00 -3.5794803514470175e-01 -1.9307504748196763e-01  4.3587536970422969e+00 -5.3118030691518481e-01 7.7877280518573233e-01  4.6132809836344535e+00 -3.5727984118871042e-01 9.8858984611284662e-01  6.6045604938883349e+00 -5.9575004660426326e-02 5.2820034400978788e-01  6.4774433363824189e+00 -1.4375058879936606e-01 4.4734680533680488e-01  6.5488389039052697e+00 -2.3358853115852132e-01 3.7954820963164831e-01  4.0739527362050447e+00 -7.9633767229761221e-01 6.1210278701994891e-01  3.3323738619663272e+00 -9.2446052276223634e-01 -1.6169797264146099e-01  6.5081802353908866e+00 -6.6263468855889849e-03 6.0153151236721003e-01  6.4745970686095680e+00 -2.2555003848375350e-02 7.1058265710690094e-01  6.5654075340043212e+00 -2.4578191463021926e-02 4.5197675449347335e-01  4.6365410203694362e+00 -4.8444170843788986e-01 9.0805702610657812e-01  4.9919479985739388e+00 -4.1785823665134320e-01 9.3135042873663232e-01  6.3520614656658081e+00 -5.7801907360644680e-02 5.3249968857673846e-01  6.3245946481802564e+00 -2.0272249069146422e-01 4.2023413119041408e-01  4.3111904950469562e+00 -6.8918515225872345e-01 6.4441062998254206e-01  6.5778452631028115e+00 -5.5065819657880884e-02 4.8568800354269193e-01  6.3385635693011695e+00 -4.4875614739026633e-02 4.8516896102607077e-01  6.4558624656121326e+00 -1.6589918021556138e-01 3.7549978291709285e-01  6.2630097424817341e+00 -5.8681641217458724e-02 4.1940960157168156e-01  6.4551951544764856e+00 -1.4886680102251271e-01 3.2476315202657569e-01  6.2870503387565035e+00 -6.2012858426849671e-02 4.2481466710295962e-01  6.5007250228473712e+00 -1.3202345855906980e-01 3.1278578846348326e-01  6.4122932494596059e+00 6.6530667985823730e-02 2.3568246260772296e-01  6.3446879290662368e+00 1.2126598479773761e-01 3.3315298873050414e-01  6.2827165303212551e+00 3.9752869059063289e-03 -1.7972155221130073e-02  6.4150251767263109e+00 -6.7641548205767357e-02 2.2169641524927292e-01  6.9344779895756927e+00 -3.1432964653243634e-02 -2.0461552571971981e-02  6.7437320166043566e+00 -3.8230215088333873e-02 2.5277514650607391e-01  6.1857866273671389e+00 6.3465678186879065e-02 -4.7487154737319737e-02  6.4517509502159953e+00 -1.1498370808789390e-02 -2.9542170762672237e-02  6.9840939105987303e+00 8.6907357744451977e-02 -3.5978689502276305e-02  6.4818605896090187e+00 9.7723434367742112e-02 1.0239873243010369e-01  6.3437430189196622e+00 1.6510980526427035e-01 8.3324317985974783e-02  6.4282434264406216e+00 -5.9252637426670694e-04 -3.9547151415582613e-02  6.4491676864126015e+00 8.6957346948621506e-02 7.4707117585443447e-02  7.0420487465037978e+00 -2.6232578761393433e-03 -3.3413622986746008e-02  6.8245375804257220e+00 7.0395677603446630e-02 4.0753911127771124e-02  6.5896015233967438e+00 3.7552589118115591e-02 2.2023476835743655e-01  6.5419790398937039e+00 4.1765500154966190e-02 2.6570780253632081e-01  6.4726268221419048e+00 3.8670572007808164e-02 -3.5342290325697287e-02  6.4834595874821721e+00 7.5085051541348605e-02 1.6018546476602863e-01  6.9728095995925781e+00 3.3720392541902268e-02 -2.7945327835943216e-02  6.8616523913206224e+00 -2.9100243688960442e-02 1.9296587144406063e-01  6.6644512976246437e+00 -8.7886591118435629e-03 1.2290033863900962e-01  6.5950978972650471e+00 -4.0647835737053654e-02 1.3667518244435087e-01  6.5076098023168392e+00 4.5578204213811098e-02 1.2696395558006338e-02  6.6304441312977422e+00 -3.6809633410752114e-02 1.9287356560381200e-01  7.0286996968829767e+00 2.2369072992273420e-02 1.0766345543366211e-02  6.9751427085093995e+00 -7.8133633861087598e-02 9.7418628351317246e-02  6.6478518890183915e+00 2.5471295713685074e-02 -2.2026222066892000e-02  6.6474035361056956e+00 -4.8968688250873763e-02 2.6885060273729500e-01  7.1149544137637610e+00 1.3388381816524823e-02 -4.4258988151661585e-02  6.6779027535554505e+00 1.6756133845776868e-02 -2.2861937967520292e-02  7.1089600363345236e+00 1.5002440918603109e-02 -4.0217866950382659e-02  6.7857992367846114e+00 2.1481223358804664e-02 -1.0460537296460104e-02  7.1590391274724192e+00 1.9883186734897199e-02 -1.8154359539651003e-02  6.8360569689190935e+00 2.1538105148544113e-02 -8.8079655083722723e-03  7.1507745122372723e+00 1.4962264354897295e-02 -2.7052476417071036e-02  6.3195995030295231e+00 -4.4292925275528749e-02 -3.8883482683599396e-02  6.9082554425697884e+00 -1.5791271802727203e-02 -6.4480549826374134e-02  6.3999235634183407e+00 -2.0932915334404178e-02 9.0944984762942136e-03  6.8996244276421352e+00 -1.6508683332921593e-02 -1.0865889178539008e-02  6.4590222240062012e+00 -2.2225619088392608e-02 -1.1715937159597640e-02  6.9460810762735514e+00 -2.6048713255038301e-02 -2.4387405433873854e-02  6.5905104240635231e+00 -3.3633882506034697e-02 -1.1424157754939801e-02  7.0191906287164176e+00 -3.6759456007147265e-02 -2.4680523569395030e-02  6.6215786575018809e+00 -2.9680148806389382e-02 -2.1569014042740975e-02  6.99282