<?xml version="1.0"?>
<VTKFile type="UnstructuredGrid"  version="0.1"  >
<UnstructuredGrid>
<Piece  NumberOfPoints="2098" NumberOfCells="9979">
<Points>
<DataArray  type="Float64"  NumberOfComponents="3"  format="ascii">-157.5 -472.5 2.777592766701777  -78.75 -393.75 48.4233783471761  -78.75 -393.75 25.14281857983035  -157.5 -393.75 16.96549637722454  -157.5 -315 48.55065037082936  -78.75 -315 79.84544144777338  -78.75 -315 63.25993645349318  0 -315 68.43814498819684  0 -315 84.55961798758163  0 -315 101.2186503440583  -157.5 -393.75 41.63919824394638  -157.5 -315 67.97420539544841  -157.5 -315 87.47014082287404  -78.75 -315 97.11263655465703  -78.75 -236.25 110.6028483436052  -78.75 -236.25 99.27197720492742  0 -236.25 103.8723620970818  0 -157.5 121.2840038101008  -78.75 -236.25 123.8223720583876  0 -236.25 126.1802278037292  0 -157.5 143.0253175502411  -157.5 -236.25 84.2134382994756  -157.5 -157.5 108.1689131873183  -78.75 -157.5 128.0225817288234  -78.75 -157.5 118.7092542792569  -157.5 -236.25 97.02105115247528  -157.5 -236.25 111.6011191146878  -157.5 -157.5 130.8519681979664  -78.75 -157.5 139.321434371308  -157.5 -157.5 118.9908184915569  -78.75 -78.75 135.7334472372335  -78.75 -78.75 147.7048906458939  -157.5 -78.75 128.0225926620935  -78.75 -236.25 137.8881353360185  -78.75 -315 115.2273550396673  0 -315 118.7397846715339  0 -315 136.629959463705  -157.5 -315 107.1151390565611  -157.5 -315 126.8409518599524  -78.75 -236.25 153.3156196391334  -78.75 -315 133.6243223485375  0 -236.25 155.0232168703765  0 -157.5 169.2204981788304  -78.75 -157.5 151.9572821983896  -157.5 -236.25 127.3795105290416  -157.5 -236.25 144.0778640917069  -157.5 -157.5 158.8052039289678  -78.75 -157.5 165.817535184521  -157.5 -157.5 144.4449703621232  -78.75 -78.75 160.2525308965354  -78.75 -78.75 173.9016022533032  -78.75 -236.25 169.3341803058951  0 -236.25 170.9607732695879  0 -157.5 183.8742437517074  0 -157.5 199.0826289685444  -78.75 -157.5 180.6123917162372  78.75 -236.25 169.3344012719354  -78.75 -78.75 188.0948365030672  -157.5 -1260 0  0 -1260 0  0 -1102.5 0  0 -1102.5 44.7101565905609  0 -1260 44.63854847926853  -157.5 -1260 44.63854847926853  -157.5 -1102.5 0  -157.5 -1102.5 44.70542936946018  0 -945 0  0 -945 44.84138037223069  -157.5 -945 0  -157.5 -945 44.82615446742763  0 -787.5 5.571642168467061e-09  0 -787.5 45.15981066802615  -157.5 -787.5 7.96278903925085e-10  -157.5 -787.5 45.11322722090379  157.5 -787.5 7.96278903925085e-10  157.5 -787.5 45.11063781155959  -78.75 -708.75 22.81543532890237  -78.75 -708.75 1.374296705193567e-05  0 -630 0.00723125198117304  0 -708.75 22.88969513140569  0 -630 23.24561595285117  0 -630 46.43270318085371  -78.75 -708.75 45.60722749226714  -157.5 -630 0.002053533747214731  -78.75 -630 23.27706240852162  -78.75 -630 0.005316696856539425  -157.5 -708.75 22.80928212885635  -157.5 -630 46.14919641114628  -78.75 -630 46.43587870571642  -157.5 -630 23.09276001932712  78.75 -708.75 22.8133758817344  78.75 -708.75 1.374296705193567e-05  157.5 -630 0.002053533747214731  157.5 -708.75 22.80805789871229  157.5 -630 23.09227251940355  157.5 -630 46.14825597524754  78.75 -708.75 45.60455418909798  78.75 -630 23.27663654546985  78.75 -630 0.005316696856539425  78.75 -630 46.43519484663508  315 -787.5 1.470643051781906e-12  236.25 -708.75 22.69761554654025  236.25 -708.75 5.167932217997606e-07  315 -630 2.975518499689911e-05  236.25 -630 22.9862841316133  236.25 -630 0.00038239969538649  -78.75 -551.25 24.54959186504799  -78.75 -551.25 0.3249179563284444  0 -551.25 24.8164343574901  0 -551.25 0.4114169189615289  0 -472.5 5.733792171117909  0 -472.5 30.90336041411768  0 -472.5 55.51467182246198  0 -551.25 48.94446541485382  -78.75 -551.25 48.38730382239278  -157.5 -551.25 0.1555332132696566  -78.75 -472.5 30.7721570933117  -78.75 -472.5 4.817868252909133  -157.5 -551.25 24.15067627961824  -157.5 -551.25 47.96158454775246  -157.5 -472.5 52.38077337387852  -78.75 -472.5 55.11828595234289  -157.5 -472.5 27.80655863560209  78.75 -551.25 24.54957310515966  78.75 -551.25 0.3249179563284444  157.5 -551.25 24.15062269585826  157.5 -551.25 0.1555332132696566  157.5 -472.5 2.777592766701777  157.5 -472.5 27.80668106771724  157.5 -472.5 52.38102341572809  157.5 -551.25 47.96149711306431  78.75 -551.25 48.3872937952535  78.75 -472.5 30.77221969694722  78.75 -472.5 4.817868252909133  78.75 -472.5 55.11842049326456  236.25 -551.25 23.59960828382375  236.25 -551.25 0.04141471220430604  0 -393.75 51.15402784250776  0 -393.75 28.3936573525129  0 -393.75 73.73513517496127  -78.75 -393.75 70.92351030135433  -157.5 -393.75 65.55490980917713  78.75 -393.75 48.42346559635446  78.75 -393.75 25.14281857983035  157.5 -393.75 16.96549637722454  157.5 -315 48.55065037082936  78.75 -393.75 70.92367170422781  78.75 -315 63.25993645349318  0 -1102.5 89.41629639143117  0 -1260 89.27709695853706  -157.5 -1260 89.27709695853706  -157.5 -1102.5 89.4071292580749  0 -945 89.67021598577963  -157.5 -945 89.640794487568  0 -787.5 90.28217423369503  -157.5 -787.5 90.19155491549648  157.5 -787.5 90.18804063871818  -78.75 -708.75 68.37609072564126  0 -708.75 68.56711051850688  0 -630 69.51028853686554  0 -630 92.50204316327893  -78.75 -708.75 91.09148631462683  -78.75 -630 69.55107855271204  -157.5 -708.75 68.35418635074241  -157.5 -630 92.03815715260581  -78.75 -630 92.49455221479738  -157.5 -630 69.12652496545206  78.75 -708.75 68.37252448724834  157.5 -708.75 68.3515694884139  157.5 -630 69.12536910433258  157.5 -630 92.03684046328313  78.75 -708.75 91.08807385176537  78.75 -630 69.55017286973769  78.75 -630 92.49365041863368  -78.75 -551.25 72.02779905425703  0 -551.25 72.51007407548877  0 -472.5 79.25393904772966  0 -472.5 102.6318673911597  0 -551.25 95.92990663304154  -78.75 -551.25 95.31021407749603  -78.75 -472.5 79.1116602324168  -157.5 -551.25 71.39673851590423  -157.5 -551.25 94.70215521396418  -157.5 -472.5 99.71645315969421  -78.75 -472.5 102.2161552553601  -157.5 -472.5 76.2089990763621  78.75 -551.25 72.02782159430095  78.75 -551.25 95.31033581558066  78.75 -472.5 79.11187536905361  157.5 -472.5 76.20941103854175  157.5 -472.5 99.7170564345177  78.75 -472.5 102.2164794344732  -78.75 -393.75 93.10932725377474  0 -393.75 95.27991236677858  0 -393.75 116.9249212776428  -78.75 -393.75 114.8566255643492  -157.5 -393.75 88.27818935413789  -157.5 -393.75 110.7998746905736  78.75 -393.75 93.10956705054056  78.75 -393.75 114.8569655492257  0 -1102.5 134.1147173721162  0 -1260 133.9156454378056  -157.5 -1260 133.9156454378056  -157.5 -1102.5 134.101659940038  0 -945 134.4751024439634  -157.5 -945 134.4335284482554  0 -787.5 135.330252133103  -157.5 -787.5 135.203829878126  157.5 -787.5 135.1999094280521  -78.75 -708.75 113.7718464583927  0 -708.75 114.0278546865079  0 -630 115.3683599666667  0 -630 138.1435067717485  -78.75 -708.75 136.3858183128773  -78.75 -630 115.3966800135357  -157.5 -708.75 113.7285327994349  -157.5 -630 137.5864681205522  -78.75 -630 138.1191180072773  -157.5 -630 114.8495029713641  78.75 -708.75 113.7682433196432  78.75 -708.75 136.382765608442  157.5 -630 137.5856116842685  78.75 -630 115.3958238120018  157.5 -630 114.8483860913295  78.75 -630 138.1185207957924  -78.75 -551.25 118.4279037985392  0 -551.25 118.9233448248749  0 -472.5 125.4668578952923  0 -472.5 148.0818316888311  0 -551.25 141.8358815107568  -78.75 -551.25 141.2653688149862  -78.75 -472.5 125.194830092846  -157.5 -551.25 117.6857676414195  -157.5 -551.25 140.5807510691287  -157.5 -472.5 145.523666511091  -78.75 -472.5 147.6310839977728  -157.5 -472.5 122.7244353923972  78.75 -551.25 118.4281646828782  78.75 -551.25 141.2658600054953  157.5 -551.25 140.5813965206482  157.5 -472.5 145.5248192334402  78.75 -472.5 125.1952909429128  78.75 -472.5 147.6317205631588  -78.75 -393.75 136.4377184111731  0 -393.75 138.0327983173169  0 -315 155.1082751946106  0 -315 173.8408447746501  0 -393.75 159.2908576708327  -78.75 -393.75 157.7983578000152  -78.75 -315 152.5539265693914  -157.5 -393.75 132.7140503544326  -157.5 -393.75 154.595627660693  -157.5 -315 166.6811656298541  -78.75 -315 171.640152653481  -157.5 -315 146.7214243161575  78.75 -393.75 136.4381668250201  78.75 -393.75 157.7989385427914  0 -236.25 187.6569135835718  -78.75 -236.25 186.2985553354094  78.75 -236.25 186.2988429311148  0 -1102.5 178.8023097195212  0 -1260 178.5541939170741  -157.5 -1260 178.5541939170741  -157.5 -1102.5 178.7861208922505  0 -945 179.2470362510185  157.5 -945 179.1945509614832  0 -787.5 180.2803682085865  157.5 -787.5 180.1244850838631  -78.75 -708.75 158.9606396134262  0 -708.75 159.2430994706891  0 -630 160.8038967839558  0 -630 183.3808983665351  -78.75 -630 160.8097162928024  78.75 -708.75 158.9578459117295  157.5 -708.75 158.8954416496387  157.5 -630 160.2255955331609  157.5 -630 182.7946907010553  78.75 -708.75 181.4651421592291  78.75 -630 160.8094361140643  78.75 -630 183.3359944422205  -78.75 -551.25 163.9781282974745  0 -551.25 164.4298345826611  0 -472.5 170.3705431175894  0 -472.5 192.528471139897  0 -551.25 186.9828670945943  -78.75 -472.5 170.0281274558699  78.75 -551.25 163.9789016975571  78.75 -551.25 186.485325875797  157.5 -551.25 185.8026033186219  157.5 -472.5 190.3528896765238  78.75 -472.5 170.0289719686292  78.75 -472.5 192.0791749570727  -78.75 -393.75 179.0801148743594  0 -393.75 180.2519309883531  0 -315 192.9858298483519  0 -315 212.3126454073781  0 -393.75 201.3602490985278  -78.75 -315 191.1038491172962  78.75 -393.75 179.0808362368312  78.75 -393.75 200.266098824205  78.75 -315 210.6755903834066  78.75 -315 191.1043577370342  -78.75 -236.25 203.6755452219582  0 -236.25 204.9551678721204  0 -157.5 215.2293508033421  0 -157.5 231.8033506000915  0 -236.25 222.8006138064494  78.75 -236.25 203.6758899719539  78.75 -236.25 221.7216246858463  0 -1102.5 223.476745304304  0 -1260 223.1927423963426  -157.5 -1260 223.1927423963426  -157.5 -1102.5 223.4583225757491  0 -945 223.9800029413626  157.5 -945 223.9212487072267  157.5 -787.5 224.951805
[...]
<PointData  Vectors="velocity"> 
<DataArray  type="Float64"  Name="velocity"  NumberOfComponents="3" format="ascii">6.0391647794287566e+00 1.5392971276139009e-01 -9.0236756401166102e-02  7.0694493930999176e+00 -1.6225900621169245e-01 2.6481262097520525e-01  6.8067196356115227e+00 -1.2842570172885737e-01 3.0715634696839911e-01  6.4860517793677852e+00 -1.3373522186680595e-01 1.5058138225457657e-01  7.0227181702699069e+00 1.1185500186036343e-01 2.3228673782095387e-02  7.4832614051626445e+00 2.6936307699317000e-02 -1.7119629905729607e-02  7.2283361057891717e+00 2.2981042193883576e-02 1.4683374905997092e-02  7.4556236918934857e+00 6.8086471265321288e-02 -2.9602628281783006e-03  7.6349006295710371e+00 6.9543554792643902e-02 -3.8530835978521631e-02  7.8481412393968988e+00 5.4477687038734755e-02 -4.1565751601233450e-02  6.8546395035900138e+00 -1.4879702100281431e-01 1.2580245127464637e-01  7.3844824183229880e+00 1.2018168523814624e-01 -2.5227903321833629e-02  7.7206924307120488e+00 1.1929645792616478e-01 -3.3821540567378829e-02  7.7559467929660819e+00 1.5477705366238324e-03 -4.7178325250467204e-03  7.6149291324904125e+00 -5.9551280580886143e-02 -1.6303116280515040e-01  7.5304929947311265e+00 -5.4842431669729227e-02 -1.8471201407019278e-01  8.2540492088834139e+00 -2.7244087312317221e-02 1.7658796949033362e-01  7.9668839641340687e+00 -7.2495443705404505e-02 -7.2474944841012773e-02  7.7919447078898791e+00 -6.0595986775817706e-02 -1.1658148105083654e-01  8.3157779006513106e+00 -6.0973002896621310e-03 9.2623032836946007e-02  8.0813159166771200e+00 -5.9359425209732711e-02 -7.2299572085403913e-02  7.7440356368447363e+00 -8.1644007441985508e-02 5.9809930041566831e-02  7.7827543216982233e+00 -5.2354111424479023e-02 -4.9009646761580913e-02  8.0894573031583636e+00 1.5755367551040816e-01 4.1450720570850183e-02  8.0218969505291362e+00 1.5928733254662231e-01 5.7250389136892198e-02  7.8961387903590250e+00 -7.3431310392863991e-02 3.9330023122752460e-02  8.0303176253721826e+00 -6.7035202965523691e-02 3.1820739993384931e-02  8.0189350658211414e+00 -3.5941597030840870e-02 -5.1631829050093649e-02  8.1966240801941801e+00 1.4122871119975713e-01 1.9319970568433445e-02  7.8802654542360004e+00 -4.6348184639942926e-02 -4.9903315792051067e-02  8.6584032169306919e+00 -7.2023050995403005e-03 2.0427553423415035e-01  8.6559981424456858e+00 -6.4752430566670811e-03 1.3792523598237638e-01  7.4962026840534346e+00 -4.3883847042545623e-02 -3.3071578737720914e-01  7.9589673907296126e+00 -6.0881414379207230e-02 -9.3766769806308881e-02  7.9476134987984786e+00 -1.2723177985416246e-02 -3.5064946485909465e-02  8.0239804172463902e+00 5.0515879757072286e-02 -5.7074953197970138e-02  8.1855895865597130e+00 5.0689810108137480e-02 -5.7538815351509578e-02  7.9512089086017017e+00 1.1180561820763722e-01 -4.7653025759306598e-02  8.1580061938928683e+00 1.1490591457346423e-01 -4.9974050236369146e-02  8.0973905084948257e+00 -5.7616520280326669e-02 -5.8971404763079313e-02  8.1071309256996145e+00 -1.7328525948421859e-02 -3.9020870042803427e-02  8.3761189150735067e+00 -2.0803720653977844e-03 3.4306863401539316e-02  8.2739881548938481e+00 -3.2309729251514763e-02 -5.4400420503159082e-02  8.2846558467799039e+00 1.2183177788486273e-01 5.7651729232233752e-03  8.1560950952345515e+00 -6.7627865158780470e-02 1.2513346145648137e-02  8.2570328281001633e+00 -5.8854510301423468e-02 1.2492695512653145e-02  8.2481222881083465e+00 -1.5066107434060975e-02 -4.6645151126948052e-02  8.3463571047833067e+00 9.8843218576537314e-02 -1.6935526151786302e-02  8.1305503344776344e+00 -2.5226471292981029e-02 -4.7048743393144389e-02  8.6776671030181252e+00 -8.2118347194895559e-03 1.0688500595363497e-01  8.6405255214165528e+00 -9.3650658228236986e-03 6.0602181245909457e-02  8.2167118096228560e+00 -5.7151838222478789e-02 -4.7783477513719766e-02  8.4140350154753882e+00 -3.8094932111944267e-03 1.3219203357036788e-02  8.3701265819873161e+00 -2.0467490275879210e-02 -4.6251268192741737e-02  8.4545333685487787e+00 -1.1254094547183556e-02 -4.2390837355193535e-02  8.4036425840394386e+00 8.0823997986645274e-02 -3.0677055139325584e-02  8.2153398238138760e+00 -4.7468860513061942e-02 -5.2645484936665023e-02  8.6338546086748167e+00 -1.1783446735149547e-02 3.8629091642311153e-02  5.8610104446357791e+00 0.0000000000000000e+00 -5.2686726023945898e-04  6.2644438061309984e+00 0.0000000000000000e+00 1.8827816232768850e-02  6.2261748380776520e+00 3.9441186961689426e-02 -5.5670392756412404e-02  6.7700706353566016e+00 3.7741728618051343e-03 -5.2278330431707182e-02  6.9067692700348289e+00 0.0000000000000000e+00 -5.2649767903435368e-02  6.7919370926321010e+00 0.0000000000000000e+00 -4.3904575791365495e-02  5.8488894573136019e+00 2.0490348605454164e-02 -1.6327196161356087e-02  6.7203837872131809e+00 -4.1261571051155899e-03 -4.8469331427051780e-02  6.1186662754529060e+00 -4.2372378993531384e-02 4.7118060138009898e-02  6.7551746396132932e+00 -3.7536516285011139e-02 -4.3392704651026237e-02  5.8156267998760605e+00 9.7297020912100726e-02 2.6814667262135255e-02  6.6553024838302246e+00 4.3555525878732827e-02 -3.7645016667410311e-02  6.3791487935849176e+00 5.2095278063430790e-02 -2.4594253703040031e-01  7.0501626486399820e+00 -1.3616809212231294e-02 -2.3220976279528635e-01  6.0277886164055410e+00 1.3381096347814556e-01 -1.2285336111123206e-01  6.8499939084804629e+00 3.8273949379362390e-02 -1.5179788566214325e-01  6.6648540297156078e+00 1.3242655699971123e-01 -3.1962695273790703e-01  7.1758670684848385e+00 6.3107175254337719e-02 -2.4618140391623156e-01  6.9991249544162839e+00 -2.7893897724842953e-01 -3.3818388956657125e-01  6.8880041902314844e+00 -2.9583055097630095e-01 -3.1361121100674444e-01  6.1048747473454998e+00 -3.3772862319653107e-01 -8.3032056991647152e-01  6.6062233987258807e+00 -1.7644466089897048e-01 -4.8987598613922595e-01  5.8604109254765637e+00 -4.0918905890568369e-01 -6.6639207682127433e-01  5.7748682724624159e+00 -5.1259176270717643e-01 -4.6010486416645097e-01  7.2717453292324183e+00 -3.6362287184882397e-01 -2.4540882018725535e-01  6.3346617640795593e+00 -3.1600268648340724e-01 -1.1005696287371185e+00  6.2005328480393880e+00 -3.4784456986026424e-01 -4.0398467361062129e-01  6.1980640266718172e+00 -2.8434779402851690e-01 -4.3350131457592700e-01  6.4872303276290690e+00 -2.4734657331379750e-02 -5.3134177523732662e-01  6.1501840419591387e+00 -6.4427830458871616e-01 -7.6749875487044983e-01  6.2120956320184426e+00 -3.9506650560764706e-01 -2.3936101866216264e-01  6.2572116067505865e+00 -4.8828052834948049e-01 -9.8489185179737215e-01  6.8136281794320732e+00 -4.0875025513649665e-01 -3.6427545769491809e-01  6.7800330432377454e+00 -4.4206992211556695e-01 -4.1650332085244035e-01  5.7277780086654575e+00 -3.9533789636748812e-01 -8.4447092641269661e-01  6.4388904396750499e+00 -2.8044047365753055e-01 -6.0436242971487197e-01  5.6018056849620450e+00 -4.7410388531943476e-01 -6.9971860653083073e-01  5.5511447295221537e+00 -6.3510902268554958e-01 -5.6171843282426548e-01  6.9004317489910818e+00 -4.2572159599055320e-01 -2.8155582349456210e-01  5.6640362154447050e+00 -3.7602546698991934e-01 -1.5476545036961342e-01  5.9080239398507981e+00 -3.1520154334840034e-01 -1.6678887115097732e-01  5.6338825577019236e+00 -4.5274439384971032e-01 -1.4270201642262609e-01  6.9539495283572448e+00 3.7241084899022336e-02 -3.9247875060848597e-01  6.7892956055776263e+00 -5.5624267641181446e-01 -4.5015191521395492e-01  6.7264456225413838e+00 -5.5329051140153529e-01 -4.6067188023665551e-01  5.3540321118635479e+00 -4.4873330115152793e-01 -6.3639634898776998e-01  5.4993123981402716e+00 -4.0125898485288941e-01 -4.5161430651829942e-01  5.5648329699262096e+00 -3.1986480828215130e-01 -5.0428663878583113e-01  4.0250009217922109e+00 -4.7207997729490891e-01 4.0296941617432891e-01  4.3112719477086960e+00 -3.2125068277420016e-01 5.7924365869725969e-01  3.6055790718734730e+00 -5.5535648771988810e-01 1.4395468691531926e-01  4.1145913721233756e+00 -3.8803969929698734e-01 1.3993851740604943e-01  5.9594200559386978e+00 -4.2402985416078946e-02 3.2379469855534981e-01  5.7003281060833935e+00 -2.8969305187812744e-01 2.2507544751177150e-01  5.3298190708696582e+00 -5.6818341605675382e-01 1.7076533858445270e-01  3.2768270430858171e+00 -7.0743249970094790e-01 1.5134599609528898e-01  3.8008387000845674e+00 -6.2042141010094443e-01 4.0999894868877479e-01  4.6599140240434256e+00 -3.2704621259282496e-01 -8.2204166891111985e-01  5.7302148044957573e+00 -2.2399423649064781e-01 4.1332301937530258e-01  5.7190334996866250e+00 2.2704667142554199e-02 4.6698444653158722e-01  3.7398902488261663e+00 -7.2970541146542833e-01 -7.1567136221576899e-01  2.6739607377883230e+00 -1.1914573827159922e+00 -5.5985636354798274e-01  5.2537780104888014e+00 -3.2049737904231618e-01 -2.1273107986053516e-01  5.6678130376751676e+00 -4.9953378340077648e-01 3.2640923282856982e-01  5.7965432962458410e+00 -2.4518100731444132e-02 -1.7210774674627086e-01  3.9844938889297397e+00 -3.6033379060380222e-01 3.4542221126420297e-01  3.9779829862826359e+00 -3.5976651820138938e-01 3.9911469036990493e-01  3.7079673061891611e+00 -5.4696751946455535e-01 -8.6456859700522326e-01  4.3877462642219331e+00 -2.1884332105773269e-01 -9.4425086702809669e-01  6.0742897743783892e+00 -2.5757456357141665e-02 3.1966254703228697e-02  5.9739740989256394e+00 -1.3378399113407885e-01 -7.2641223044358924e-02  5.4795361611923958e+00 -3.4893991284891379e-01 -1.0358632411358275e-01  3.0373789880012549e+00 -9.1745884468313832e-01 -7.2140287164859318e-01  4.2018921091958079e+00 -3.4370087706575364e-01 1.7154208826601652e-01  5.6818431898931969e+00 -2.5905076280257705e-01 4.2526991653082047e-01  5.5680454531326893e+00 -1.4184525340835560e-01 4.3120942853680161e-01  5.8500367320047006e+00 -3.6901532193825953e-01 2.3697658765339588e-01  3.2762693785141708e+00 -6.9613927640338091e-01 -5.9884499231167565e-02  3.5788365150519947e+00 -5.3565701626789886e-01 7.6566369319908845e-02  6.9928790362834521e+00 -1.3408614195522042e-01 8.6495245264336024e-02  6.7129559260506735e+00 -1.3266839104477762e-01 1.1532261558492381e-01  7.3434749030814288e+00 -1.3257133259103432e-01 3.7059847232266567e-02  7.5144034323298046e+00 -2.0261236426821810e-01 1.7630562169832317e-01  7.4790552857075250e+00 -8.3150627426142834e-02 8.4210087949376816e-02  7.0966637832068873e+00 -1.1466189134087289e-01 2.8097557333739004e-01  6.9443746066882825e+00 -9.9978109628219486e-02 3.3890362818267317e-01  6.5876812400297995e+00 -1.1670603508619172e-01 1.2973634446495416e-01  7.4068390980393906e+00 8.1846604965957678e-02 -2.7808783302275240e-02  7.4026055130276980e+00 -1.5862355417143939e-01 1.8790980076937047e-01  7.4273873703418287e+00 -3.9700547138956002e-02 1.3153738118188339e-02  7.5315657745141547e+00 -3.4637069553771703e-04 -4.6785404390464767e-02  7.5888104612110174e+00 0.0000000000000000e+00 -4.7767224573120139e-02  7.5261692633934922e+00 0.0000000000000000e+00 -4.8064400237962643e-02  7.4906513090654503e+00 -5.6980868925299430e-04 -3.7625643782750233e-02  7.5403380749950308e+00 -4.6408470059842284e-02 -7.2342461886875306e-02  7.4581889624932396e+00 2.7419730137513247e-02 -5.8731005978275450e-02  7.7898629338085508e+00 -8.8536582294331381e-02 -1.3835600516698607e-01  7.6816686124850353e+00 2.1269425601288276e-03 -1.1559722762531807e-01  7.7677048827568811e+00 2.5565853352671930e-03 -1.5068670839608447e-01  7.5133647996509225e+00 -3.4305985501932224e-01 -2.3200502621166222e-01  6.9588305718515580e+00 -3.2582787199445223e-01 -2.9410202939705615e-01  5.7791336726319837e+00 -5.0584338835175235e-01 -3.2085011858013701e-01  6.0061662399189704e+00 -5.0403463500366363e-01 -1.6969135773067467e-01  7.6844514348877215e+00 -3.7097277304262444e-01 -1.5098863668182030e-01  6.2400824827389574e+00 -4.0004247492217826e-01 -2.2199956831869797e-01  7.0749043541009629e+00 -2.0021186343469283e-01 -3.1456913787065893e-01  6.3201457054419077e+00 -7.4328439112375688e-01 -2.6758432405294574e-01  6.4737501207384103e+00 -3.8710042378297960e-01 -1.0143717202426902e-01  6.1579431510601275e+00 -7.1753104884758656e-01 -5.2297536294085079e-01  7.1040449753728208e+00 -4.0361003211479990e-01 -2.2254038799444820e-01  6.7329868561601911e+00 -3.1295945682905879e-01 -3.3608051073201578e-01  5.6543396427583339e+00 -6.6521070945551919e-01 -3.9918424348149517e-01  5.8139096915113422e+00 -6.9848145619305302e-01 -1.9306437042249691e-01  7.2693699026691432e+00 -3.6421978728471477e-01 -1.4610623013943655e-01  5.7428633136018030e+00 -4.3496311759445189e-01 -1.0251353986762914e-01  6.0264248204581845e+00 -4.1275582125815546e-01 -1.1280934228259551e-01  3.8083194037517809e+00 -7.1243504901996546e-01 1.9169246685464134e-01  3.3248465335845272e+00 -7.7205025254665050e-01 7.5641347851178528e-02  5.4134438117789028e+00 -6.4964466560313505e-01 3.8410277149899752e-02  5.6467282723841139e+00 -6.5100607927206633e-01 -6.0876318887846718e-02  3.9062747694090589e+00 -7.0654533861391289e-01 1.9206965705856213e-02  4.3271414312604168e+00 -6.5540159689645350e-01 1.1935888277231589e-01  5.8183734436212466e+00 -6.3445687347984414e-01 1.2518835116773311e-01  2.5755659301571501e+00 -1.3248137997221610e+00 -3.1851224084712876e-01  3.0949363339526132e+00 -1.2652565719806255e+00 -1.7295095988253428e-01  5.3857281402872728e+00 -4.7566318926748952e-01 -1.4207487250679873e-01  6.1071791501172914e+00 -6.1025088141297967e-01 -2.2638336928367690e-02  5.1616952603243780e+00 -4.6366652822402038e-01 -1.6069433830062813e-01  4.4640699380461486e+00 -3.4745136178422809e-01 1.3235725050303584e-01  4.9066912819110220e+00 -2.9911459269428137e-01 5.1427418666884633e-02  6.2267616734167639e+00 -3.8114417489957991e-01 1.4875596636341273e-01  5.3828969559665945e+00 -4.5413513547149192e-01 -9.4558655569179070e-02  5.5718963674784385e+00 -4.4778986900786144e-01 -2.7134481929406089e-02  6.4850467090586053e+00 -3.6783994315996460e-01 1.2857142245040578e-02  7.8791589392153627e+00 -2.3669912356442921e-01 8.6900388835999001e-02  7.6753741295699784e+00 -1.1421416986247622e-01 -2.2724722333319888e-02  7.8632521782792404e+00 -8.8593572930146386e-02 -6.4017105112858588e-02  8.1128979256437965e+00 -2.0661678847519180e-01 -1.4042701419126060e-02  7.8902597839914037e+00 -5.7300012836107812e-02 2.6414743861929428e-02  8.1013909025687223e+00 -3.0034685534153251e-02 -6.5093658525312903e-02  7.7523655067696948e+00 -1.8991969901943542e-01 8.0886386692156309e-02  7.9803836153629861e+00 -1.8128603976282329e-01 6.6657947702123375e-04  8.0408642193498352e+00 -5.6711980233406937e-03 -3.6133290068193206e-02  8.0484328437995778e+00 0.0000000000000000e+00 -4.6631335788966922e-02  8.0548108017191442e+00 0.0000000000000000e+00 -3.5778682069157942e-02  8.0597169469279262e+00 -3.3217026514806786e-03 -3.3104561700643284e-02  8.0481147407530251e+00 -4.7889284525386711e-02 -6.9347385845139400e-02  8.0415864787558426e+00 -3.7950438463585793e-03 -6.6979796381665901e-02  8.2142865587029554e+00 -1.1035073774558277e-01 -6.1476986626216167e-02  8.1688623779754614e+00 -5.3114067625239347e-02 -7.8506219155730986e-02  8.1803023361861396e+00 -5.1816695998951480e-02 -8.6623709872401533e-02  7.8956066980446291e+00 -3.2361987827284189e-01 -7.8589423783533383e-02  7.3792110450074953e+00 -3.2710269914141882e-01 -8.7498504093748153e-02  6.4013410171553460e+00 -4.0111468798415834e-01 -5.4729815911478338e-02  6.8641041268817675e+00 -3.1956276484766827e-01 2.0827295908845706e-02  8.0908338192871039e+00 -2.9304731526402422e-01 -4.6367068443170803e-02  6.8165777415365882e+00 -2.9864300129111321e-01 -2.0435129426231474e-02  7.5494845450868882e+00 -2.5368413856454952e-01 -6.2516110073595768e-02  7.1710153150545013e+00 -5.1113153472080142e-01 1.3661251036424885e-01  7.2115399144050087e+00 -2.3046594225001601e-01 -9.1541683418082109e-03  6.7124620162206288e+00 -6.3781928162258528e-01 -2.9264192245157312e-02  7.5026716606049817e+00 -3.2517072478615022e-01 -8.5895804759390501e-02  7.7323595186906893e+00 -2.6962517915222106e-01 -3.3177580931600864e-02  6.6750415003758201e+00 -4.7219861488038883e-01 1.1213942670584294e-01  6.4128506507128256e+00 -3.4964134349515108e-01 -7.4620768336844279e-02  6.2363710643827819e+00 -5.8629800838827428e-01 -1.7982123492533458e-02  6.8177837796291190e+00 -2.8936518205280959e-01 -6.0194076318733400e-02  4.9054365946911513e+00 -5.6909800713186220e-01 -7.1117261590075210e-04  4.5675877084647558e+00 -5.8535944128529782e-01 -2.5689375976388280e-02  6.1625813113495340e+00 -5.0990573902964365e-01 -1.2943604761351629e-01  6.6972598300000961e+00 -3.5226294726865326e-01 -1.7982278548643565e-01  5.4075246116298077e+00 -4.2462140390196157e-01 -7.0605608509010237e-02  5.6928662861605517e+00 -3.9377686741777174e-01 -9.0309369107485327e-02  6.6165689126462102e+00 -4.7943365278371453e-01 -1.4491696628018150e-01  3.6436023141123166e+00 -1.1744860838895210e+00 1.1173002197421341e-03  4.8537235743774971e+00 -8.3676685525710504e-01 1.1987423514222631e-01  6.7984608129910775e+00 -1.1913346299557992e-01 -3.5287737767981074e-02  7.1345859492108792e+00 -2.9035833407683281e-01 -2.1427767746192233e-01  6.0488254528942287e+00 -3.2188475759848673e-01 -9.1604241548363372e-02  5.3753118750642539e+00 -2.4477554686119130e-01 3.3398211394237057e-02  5.8979963745551336e+00 -1.8120008556324205e-01 2.3717152525952665e-02  4.9314037612537449e+00 -6.7349342970552517e-01 2.7553429855104605e-01  6.6773659311937781e+00 -1.8818905513532597e-01 4.2917833135820510e-02  6.8119543493880590e+00 -2.9964124185889474e-01 -6.3678013026711749e-02  7.1004128439957785e+00 -2.4189288607847337e-01 -1.1649211896452960e-01  8.3513750452399034e+00 -1.6492333864445924e-01 -9.2618873336664659e-02  8.1177481772700908e+00 -2.8725539784162240e-02 -9.2770295573363526e-02  8.2953337242516376e+00 4.8188198951362921e-02 -5.3002098513510995e-02  8.3962372449013518e+00 5.3382256254167267e-02 -5.4499970197983326e-02  8.2729950852304928e+00 2.1855667415537180e-02 -1.0917093238280988e-01  8.4923748774674781e+00 -1.1013584600284801e-01 -1.2866322908757385e-01  8.2158991797633210e+00 -4.2271677765194623e-02 -4.2551552116076551e-02  8.3606190707394443e+00 3.3639213818645987e-03 -9.6638448396358032e-02  8.4154005811748966e+00 1.3789369049613276e-02 -1.2529115456723383e-01  8.3917642935314856e+00 1.0035320712294807e-01 -4.1088306926286233e-02  8.3050698203005542e+00 -3.9466151480128948e-02 -5.4586608872147592e-02  8.2870322038763629e+00 1.0202841979943805e-01 -4.0651105667625261e-02  8.2043739701275307e+00 -1.5276431044587327e-01 -7.2780881312838538e-02  8.3448790142953282e+00 -1.1244226218211736e-01 -1.1786822832827329e-01  8.4637533117500432e+00 -9.6680658039758401e-05 6.8126044336914776e-03  8.3027293444489008e+00 -5.0218962232873220e-02 -2.7788285710488244e-02  8.3020603980828760e+00 -4.2643803225276909e-02 -3.9173611215435736e-02  8.3592979512467593e+00 -8.8656258529300654e-03 -2.6606213920722942e-02  8.3400349988957618e+00 0.0000000000000000e+00 -4.4050700805854326e-02  8.3627647921821922e+00 0.0000000000000000e+00 -3.0439988382595474e-02  8.3729975189092638e+00 -5.3846986770308700e-03 -2.5911136012692532e-02  8.3581769406665369e+00 -4.1330281525888857e-02 -5.8066507420010523e-02  8.3254242879989544e+00 -4.9329733111673872e-02 -6.0230535573050581e-02  8.4200866387547375e+00 -1.1153501057314370e-01 -1.3263390624209753e-02  8.4023555487674582e+00 -8.5375687238471054e-02 -2.2822970081342400e-02  8.2716055391137964e+00 -2.2798512156352113e-01 3.3577033470233227e-02  7.9210272032701123e+00 -2.2519431710667309e-01 6.2999374004571285e-02  7.3282684480437972e+00 -2.1050815379275845e-01 1.1127504481545479e-01  7.7766710994106916e+00 -1.2289112712871095e-01 1.3848421533885835e-01  7.6260153979402272e+00 -1.4815263284128902e-01 1.0364005739581421e-01  7.9772056891225116e+00 -2.2690947353245997e-01 1.9773166264289859e-02  7.7363479766141428e+00 -2.0920711508373932e-01 1.0892537038342714e-01  7.1531192781994895e+00 -3.2831455320738101e-01 1.9882279477192755e-01  7.5834541536986313e+00 -2.0728789573924944e-01 2.0305361952307333e-01  8.1961342299230342e+00 -1.7173122755260786e-01 3.4783993773029029e-02  7.2416572759