<?xml version="1.0"?>
<VTKFile type="UnstructuredGrid"  version="0.1"  >
<UnstructuredGrid>
<Piece  NumberOfPoints="2131" NumberOfCells="10172">
<Points>
<DataArray  type="Float64"  NumberOfComponents="3"  format="ascii">0 -315 68.43814498819684  0 -236.25 114.0090109479134  0 -236.25 103.8723620970818  -78.75 -236.25 110.6028483436052  0 -157.5 121.2840038101008  0 -157.5 131.7530069631837  0 -157.5 143.0253175502411  0 -315 84.55961798758163  0 -315 101.2186503440583  0 -236.25 126.1802278037292  -78.75 -157.5 128.0225817288234  78.75 -236.25 110.6028777948296  78.75 -236.25 99.27197720492742  78.75 -315 63.25993645349318  157.5 -315 48.55065037082936  157.5 -236.25 97.02111955872731  157.5 -236.25 84.2134382994756  157.5 -157.5 108.1689131873183  157.5 -157.5 118.9908579196664  157.5 -157.5 130.8520463966415  78.75 -315 79.84552367382214  157.5 -315 67.97430131968363  157.5 -315 87.47035615722889  157.5 -236.25 111.6012597188734  78.75 -236.25 123.8224275281663  78.75 -315 97.11276530744226  78.75 -157.5 128.0225981230623  78.75 -157.5 118.7092542792569  78.75 -157.5 139.3214744981102  236.25 -236.25 75.94445914613877  236.25 -236.25 58.19536489941795  236.25 -315 28.3936573525129  315 -315 10.96683432468415  315 -236.25 51.58998338692606  315 -236.25 28.3936573525129  315 -157.5 48.55065037082936  315 -157.5 67.97417523225236  315 -157.5 87.47005860525717  236.25 -315 51.59007612409384  315 -315 35.85944295899566  315 -315 60.14940641990407  315 -236.25 73.75604211944616  236.25 -236.25 94.22014944374239  236.25 -315 73.75621816104712  236.25 -157.5 97.02105593506403  236.25 -157.5 84.2134382994756  236.25 -157.5 111.6011276204908  393.75 -236.25 33.32275908899042  393.75 -236.25 8.005774810135152  393.75 -157.5 41.63907873836342  393.75 -157.5 16.96549637722454  472.5 -157.5 2.777592766701777  472.5 -157.5 27.80633994590517  472.5 -157.5 52.38033713772814  393.75 -236.25 57.55078414374546  393.75 -157.5 65.5546716073453  0 -78.75 136.9572185216693  0 -78.75 125.6999504194373  -78.75 -78.75 135.7334472372335  0 0 126  0 0 138.3435629570561  0 0 150.9099450720596  0 -78.75 148.9143492520888  -78.75 -78.75 147.7048906458939  -78.75 0 136.9572095232521  -157.5 0 143.0251622323665  -78.75 0 148.9142839600476  78.75 -78.75 135.7334024625727  78.75 -78.75 124.8040820066971  157.5 -78.75 128.0225569763576  157.5 -78.75 118.7092542792569  157.5 0 121.2840038101008  157.5 0 131.7529392280207  157.5 0 143.0251993878183  157.5 -78.75 139.3213934986057  78.75 -78.75 147.7049083597137  78.75 0 136.9571334653986  78.75 0 125.6999504194373  78.75 0 148.9142760618755  236.25 -78.75 110.6027795797048  236.25 -78.75 99.27197720492742  315 -78.75 79.84530630073786  315 -78.75 63.25993645349318  315 0 68.43814498819684  315 0 84.55939999547871  315 0 101.2182336247104  315 -78.75 97.11236799888455  236.25 -78.75 123.8222131660439  236.25 0 114.0089011073092  236.25 0 103.8723620970818  236.25 0 126.1799896071981  393.75 -78.75 48.4231549260432  393.75 -78.75 25.14281857983035  472.5 -78.75 30.77182195632192  472.5 -78.75 4.817868252909133  472.5 0 5.733792171117909  472.5 0 30.90292412278953  472.5 0 55.51380168208927  472.5 -78.75 55.11761738257  393.75 -78.75 70.92306495641688  393.75 0 51.15371542890215  393.75 0 28.3936573525129  393.75 0 73.7345087474759  551.25 -78.75 24.54912675638318  551.25 -78.75 0.3249179563284444  551.25 -157.5 0.1555332132696566  630 -157.5 0.002053533747214731  630 -78.75 23.2764524402164  630 -78.75 0.005316696856539425  630 0 0.00723125198117304  630 0 23.24488047876721  630 0 46.43122758638756  551.25 -157.5 24.15034405813996  630 -157.5 23.09229711727038  630 -157.5 46.14826911736882  630 -78.75 46.43465748757716  551.25 -78.75 48.38637394907892  551.25 -157.5 47.96091978328654  551.25 0 24.81585797606221  551.25 0 0.4114169189615289  551.25 0 48.94330875426683  787.5 -157.5 7.96278903925085e-10  708.75 -78.75 22.8146770194354  708.75 -78.75 1.374296705193567e-05  787.5 0 5.571642168467061e-09  787.5 0 45.15787346223063  708.75 0 22.88884373248732  708.75 -78.75 45.60570815969005  945 0 0  945 0 44.84028783844094  0 78.75 136.9571857724786  0 78.75 125.6999504194373  -78.75 78.75 135.7334319646444  0 157.5 121.2840038101008  0 78.75 148.9142598450925  -78.75 78.75 147.7048341824799  78.75 78.75 135.7333530758101  78.75 78.75 124.8040820066971  157.5 78.75 128.0225513386148  157.5 78.75 118.7092542792569  157.5 157.5 108.1689131873183  157.5 157.5 118.9907383038534  157.5 157.5 130.8518126039432  157.5 78.75 139.3213200877499  78.75 78.75 147.7048394693184  78.75 157.5 118.7092542792569  236.25 78.75 110.6027259913341  236.25 78.75 99.27197720492742  315 78.75 79.8452605390537  315 78.75 63.25993645349318  315 157.5 48.55065037082936  315 157.5 67.974031015957  315 157.5 87.46981747157754  315 78.75 97.11226668508944  236.25 78.75 123.8221236271492  236.25 157.5 97.02093576541846  236.25 157.5 84.2134382994756  236.25 157.5 111.6008908930686  393.75 78.75 48.42308888070718  393.75 78.75 25.14281857983035  472.5 78.75 30.77171583321057  472.5 78.75 4.817868252909133  472.5 157.5 2.777592766701777  472.5 157.5 27.80613908270345  472.5 157.5 52.3799473494058  472.5 78.75 55.11740955723817  393.75 78.75 70.92293656708168  393.75 157.5 41.63894090000373  393.75 157.5 16.96549637722454  393.75 157.5 65.55440080843235  551.25 78.75 24.54891921712017  551.25 78.75 0.3249179563284444  630 78.75 23.27584275727872  630 78.75 0.005316696856539425  630 157.5 0.002053533747214731  630 157.5 23.09146185493789  630 157.5 46.14662775874735  630 78.75 46.43359753355095  551.25 78.75 48.38597892005161  551.25 157.5 47.96014331383041  708.75 78.75 22.81245563344949  708.75 78.75 1.374296705193567e-05  787.5 157.5 7.96278903925085e-10  787.5 157.5 45.10874540125485  708.75 78.75 45.6026964586738  945 157.5 0  945 157.5 44.82454592977874  1102.5 0 0  1102.5 157.5 0  1102.5 157.5 44.70486879424708  1102.5 0 44.70972580314718  1260 0 0  1260 157.5 0  1260 157.5 44.63854847926853  1260 0 44.63854847926853  236.25 236.25 75.94426189526136  236.25 236.25 58.19536489941795  315 236.25 51.58978888465562  315 236.25 28.3936573525129  315 315 10.96683432468415  393.75 236.25 33.3225462976806  393.75 236.25 8.005774810135152  1102.5 315 44.69275147789409  1260 315 0  1260 315 44.63854847926853  0 -236.25 140.0339429490474  -78.75 -236.25 137.8881353360185  0 -157.5 155.7725391523862  0 -157.5 169.2204981788304  0 -315 118.7397846715339  0 -315 136.629959463705  0 -236.25 155.0232168703765  -78.75 -157.5 151.9572821983896  78.75 -236.25 137.8882422053752  157.5 -236.25 127.3797213680501  157.5 -157.5 144.4450903203581  157.5 -157.5 158.8053758516943  78.75 -157.5 151.95735899021  78.75 -236.25 153.3157724741313  78.75 -157.5 165.8176516362852  236.25 -236.25 112.7434529886279  315 -236.25 95.56278520303555  315 -157.5 107.1150111028127  315 -157.5 126.840769984041  236.25 -157.5 127.3795248877901  236.25 -157.5 144.0778866278835  393.75 -236.25 81.3181267223468  393.75 -157.5 88.27782626420034  472.5 -157.5 76.208347042792  472.5 -157.5 99.71558984991979  393.75 -157.5 110.7993888886336  0 -78.75 161.6911561419403  -78.75 -78.75 160.2525308965354  0 0 164.1174610261761  0 0 177.7147019425409  0 -78.75 175.2106205650082  -78.75 -78.75 173.9016022533032  -78.75 0 161.691050604317  78.75 -78.75 160.2526091423471  157.5 -78.75 151.9572384449732  157.5 0 155.772374059196  157.5 0 169.2202776922618  157.5 -78.75 165.8174954372887  78.75 -78.75 173.9017027497063  78.75 0 161.6910899520286  78.75 0 175.2105534975228  236.25 -78.75 137.8879388872359  315 -78.75 115.226952120763  315 0 118.73916670701  315 0 136.6291498270453  315 -78.75 133.6237947791727  236.25 -78.75 153.3153540180961  236.25 0 140.0336032054378  236.25 0 155.0227447096473  393.75 -78.75 93.10866080325989  472.5 -78.75 79.11065644591574  472.5 0 79.25263361521914  472.5 0 102.6301263807825  472.5 -78.75 102.2148208772838  393.75 -78.75 114.8557418926571  393.75 0 95.27898856386665  393.75 0 116.9236922381441  551.25 -78.75 72.02640408495618  630 -78.75 69.5492402787624  630 0 69.50806500321663  630 0 92.49905925811895  551.25 0 72.50833681663003  551.25 -78.75 95.30835540797301  551.25 0 95.92757738112793  708.75 -78.75 68.3737951882203  708.75 0 68.56450662082653  787.5 0 90.27812605958211  -78.75 78.75 160.2524336626698  0 78.75 161.6910260371159  0 78.75 175.21045875116  0 157.5 169.2201297654635  78.75 78.75 160.2524639161947  157.5 78.75 151.9571184726955  157.5 78.75 165.8172965529291  157.5 157.5 158.8049197246575  78.75 78.75 173.9015119168387  78.75 157.5 165.8172259005702  236.25 78.75 137.8877779382157  315 78.75 115.2268057944928  315 157.5 107.1146605065792  315 157.5 126.8403145870135  315 78.75 133.6235823173825  236.25 78.75 153.3151483991475  393.75 78.75 93.10847272957771  472.5 78.75 79.11035748379646  472.5 157.5 76.20779256851166  472.5 157.5 99.71489041565347  472.5 78.75 102.2144549596425  393.75 78.75 114.8554988886143  393.75 157.5 88.27742745014757  393.75 157.5 110.7988720802795  551.25 78.75 72.02583995213105  630 78.75 69.54775653621002  630 78.75 92.49039833556448  630 157.5 92.03351531868876  551.25 78.75 95.30767243901371  708.75 78.75 68.36971096934644  787.5 157.5 90.18410626448551  708.75 78.75 91.0842549500298  945 157.5 89.63767990472186  945 0 89.66801882462458  1102.5 157.5 89.40603529155949  1102.5 0 89.4154437160194  1260 157.5 89.27709695853706  1260 0 89.27709695853706  393.75 236.25 81.31750850556016  1102.5 315 89.38254135512989  1260 315 89.27709695853706  78.75 -236.25 169.3344012719354  78.75 -157.5 180.6125418763878  157.5 -157.5 174.404967523343  157.5 -157.5 190.5478068039546  0 -157.5 183.8742437517074  0 -157.5 199.0826289685444  78.75 -157.5 196.253750926373  0 -78.75 189.5003178361643  -78.75 -78.75 188.0948365030672  0 0 192.1164458481522  0 0 206.9384247558623  0 -78.75 204.4832740427607  78.75 -78.75 188.0949591726513  157.5 -78.75 180.6123395488856  157.5 0 183.8739720572475  157.5 0 199.082285750384  157.
[...]
<PointData  Vectors="velocity"> 
<DataArray  type="Float64"  Name="velocity"  NumberOfComponents="3" format="ascii">7.4556236918934857e+00 6.8086471265321288e-02 -2.9602628281783006e-03  8.2836074174199581e+00 -1.1338456322257334e-02 1.2416308439374178e-01  8.2540492088834139e+00 -2.7244087312317221e-02 1.7658796949033362e-01  7.6149291324904125e+00 -5.9551280580886143e-02 -1.6303116280515040e-01  7.9668839641340687e+00 -7.2495443705404505e-02 -7.2474944841012773e-02  8.0124477837721653e+00 -6.6564032639171961e-02 -7.3276958334895920e-02  8.0813159166771200e+00 -5.9359425209732711e-02 -7.2299572085403913e-02  7.6349006295710371e+00 6.9543554792643902e-02 -3.8530835978521631e-02  7.8481412393968988e+00 5.4477687038734755e-02 -4.1565751601233450e-02  8.3157779006513106e+00 -6.0973002896621310e-03 9.2623032836946007e-02  8.0894573031583636e+00 1.5755367551040816e-01 4.1450720570850183e-02  7.5717710011641852e+00 -6.8492585623532568e-02 -1.6211425375362123e-01  7.5236800107495396e+00 -5.9499853678340195e-02 -1.9776481187300438e-01  7.4273873703418287e+00 -3.9700547138956002e-02 1.3153738118188339e-02  7.4068390980393906e+00 8.1846604965957678e-02 -2.7808783302275240e-02  8.3163787070175683e+00 1.5353465626488844e-02 1.3584996804795202e-01  8.4344323057260961e+00 1.3979252629896226e-02 2.1686808479038772e-01  7.9879216900992143e+00 -8.8338345720562650e-02 -8.5215321268753086e-02  7.9909767195747454e+00 -8.0189743952301731e-02 -7.6890105327678163e-02  7.9961867059991452e+00 -6.1376727900167641e-02 -6.7681865893709545e-02  7.5766080928946744e+00 -4.8633795259721606e-02 -1.5710525283327420e-03  7.4835867051129190e+00 6.8672590161899652e-02 -5.7281319104368143e-02  7.6482493044631603e+00 6.2246919633919248e-02 -4.5073453680927481e-02  8.2506016428800439e+00 1.5648739093140421e-02 8.7673046733309251e-02  7.7463836160795898e+00 -6.4687345988949860e-02 -1.2538625437243681e-01  7.7987624990492810e+00 -4.5621826788832177e-02 -2.5734609483121364e-03  8.0871864090391714e+00 1.6032933182556891e-01 3.8464245246910896e-02  8.0400186780782157e+00 1.6797568814284447e-01 4.7887699769437651e-02  8.1692144713683987e+00 1.3008146087732253e-01 1.5074646784542133e-02  7.5815606282020047e+00 -5.9058991518713744e-02 -1.3554706841375116e-01  7.4591052123219566e+00 -7.4125803536416471e-02 -2.0458958376132236e-01  7.2360369904706614e+00 -4.4258542269828664e-02 7.7038609505405170e-02  7.1947091968604040e+00 5.3229778634529226e-02 1.7804173536871130e-02  8.0979250623260253e+00 8.9320503497840546e-03 4.0360125136102369e-02  8.3854562939061346e+00 2.4082349464104810e-02 1.1128288962159220e-01  7.7496033205330210e+00 -1.5103977059161330e-01 -6.5036665897280424e-02  7.7741330141804941e+00 -1.2410010360547319e-01 -6.3697573466917901e-02  7.8845535406196925e+00 -7.5670406280737540e-02 -3.4282443009599012e-02  7.4217111715468391e+00 -6.0154404616488868e-02 4.0033429374069271e-02  7.2592736639675222e+00 3.5111088046844083e-02 -4.6624890915212174e-03  7.4033326302408229e+00 2.6858146388129427e-02 2.0046733625541442e-02  8.0192406446626006e+00 1.6367871433661123e-02 1.1646314426289266e-02  7.7098524707528275e+00 -5.4768345520805173e-02 -1.0392445840588811e-01  7.6084973513105840e+00 -6.6204526079590695e-02 5.7962751833554364e-02  7.9747934666817981e+00 1.0983285292614693e-01 2.2161364876795542e-02  7.8862728915576366e+00 9.1538827783616147e-02 2.6493600588075816e-02  8.0880119067943017e+00 8.5154515097264002e-02 6.7945902202100903e-03  7.6510119629491822e+00 -5.4259990401438564e-02 -1.2244410212305069e-01  7.5714221652094951e+00 -5.7125003562864929e-02 -1.9335070197858059e-01  7.9314885828342465e+00 -9.1717429464039171e-03 2.3560093343692943e-02  8.3915222209365385e+00 -1.4815252794045620e-02 3.6379271440357651e-02  8.5843073962568610e+00 -1.1852057048596032e-01 -1.8562731966817105e-02  8.1089049724000049e+00 -1.0418820006269282e-01 -7.1384471889340360e-03  7.9152715780369913e+00 -9.3706939303303954e-02 -2.9960556420134978e-02  7.6946261348867431e+00 -5.0679494760506393e-02 -7.9988516273094154e-02  7.9698112792747757e+00 3.8306692531546289e-03 -1.1871721779771355e-02  7.4483875040365923e+00 -4.1906102921204551e-02 -4.2784760129435878e-01  7.3733691384670150e+00 -3.8710167168396370e-02 -5.3760178720527907e-01  8.6584032169306919e+00 -7.2023050995403005e-03 2.0427553423415035e-01  8.1369643224063246e+00 8.9807965689306712e-02 1.8212599548453300e-02  8.1767528137320706e+00 8.1825635847928513e-02 4.5462204169740281e-04  8.2385663190238265e+00 7.4186231160095262e-02 -1.5162968881812833e-02  7.5930613791896375e+00 -4.2492982030265775e-02 -3.4556726960596884e-01  8.6559981424456858e+00 -6.4752430566670811e-03 1.3792523598237638e-01  8.0613382380016496e+00 -1.2824008250173743e-01 -6.2087255774451539e-02  8.1810791491826329e+00 6.5653907822920368e-02 -8.2896862588252348e-03  8.1648495666492220e+00 -1.0256892777895814e-01 -5.6200204501791584e-02  8.8763741451340135e+00 1.2332884865686989e-03 2.7911978054789144e-01  8.8809362285566706e+00 -2.0026537515454986e-03 3.6300396092080078e-01  7.1679456908023340e+00 -4.1265578148415825e-02 -5.0566181114959607e-01  7.0889442816778185e+00 -2.5083539296970585e-02 -6.9233582120635495e-01  8.2066972125701199e+00 1.0366991033179969e-01 1.1218492348399578e-02  8.2173617250100577e+00 9.5492856575084994e-02 -7.4457764094983123e-03  8.2183393947424079e+00 7.1046860026160841e-02 -2.5265328121203759e-02  7.3625460509817087e+00 -4.6841968206373152e-02 -3.9017873901028138e-01  8.8707361562783547e+00 3.2838369075660584e-03 2.0746260933401248e-01  8.0407381835633540e+00 -1.4188346625363382e-01 -9.1451075319474856e-02  7.9988028973292895e+00 -1.5614996740019813e-01 -1.1378539758522395e-01  8.1229738196454111e+00 -1.1350752052294596e-01 -7.7217683745456553e-02  9.0417920786714401e+00 2.0160307677125268e-02 3.0435241725034817e-01  9.0498886748262422e+00 1.7523313855736375e-03 4.3322245961726685e-01  7.3163887931333171e+00 -5.5207716742613419e-02 -3.0408241875181946e-01  6.9242827636981330e+00 -5.4643565040038408e-02 -5.0011898699710478e-01  8.0866090425945014e+00 1.0321364997010990e-01 -2.1587227020437416e-02  8.0379280235309221e+00 8.4047712831750873e-02 -4.5568841691028476e-02  8.0240758185887628e+00 4.5459215122708077e-02 -5.6836048134770993e-02  7.7064191758085494e+00 -3.9824089234883953e-02 -1.8037809976054661e-01  8.9582365006238689e+00 2.4080823649687593e-02 2.1843586296048453e-01  7.9265313030721130e+00 -1.5455398691250524e-01 -1.1481689825565661e-01  7.8376935694527354e+00 -1.6910622979208537e-01 -1.5644395999725252e-01  8.0467802624663367e+00 -9.6280883556530097e-02 -8.5412857745599632e-02  8.6736160809901133e+00 7.1330595705545331e-03 2.0103453000777299e-01  9.8436333864272729e+00 6.5679473688990186e-02 3.7410935745955615e-01  8.6811936840309478e+00 8.0702201649240635e-03 -2.4645782942249832e-02  1.0097038198871754e+01 8.7523240167166672e-02 -1.7162618696391529e-01  8.9680915840456414e+00 2.2257224858298286e-01 -7.6319638067910311e-02  8.5405756960849217e+00 1.3177727464550851e-01 -6.8859476112583640e-02  8.1896472516869636e+00 7.2028512783919710e-02 -6.4386202064951895e-02  8.1530626605704892e+00 -1.4646999981156469e-02 -3.4419336257527244e-02  8.4709922194430263e+00 1.2712374143807850e-03 9.6781831653809602e-02  8.1528577817366372e+00 -2.4256809072668108e-02 -5.4439773161082838e-02  8.4773680147714341e+00 5.2451823599100826e-02 -1.2952618775033201e-01  8.0901951826416898e+00 -3.5625509321805165e-02 -5.2181625579395464e-02  9.4901200807359327e+00 6.1109586996173873e-02 2.0652133281409216e-01  1.0371599695914265e+01 1.0654929322228544e-01 2.8413030312428972e-01  8.8032758795833281e+00 -4.2243980712899712e-02 7.9316084694474626e-02  8.4804022247824413e+00 -8.6711734982464816e-02 1.1245263824332394e-02  8.9212160569325505e+00 1.8713594843197612e-02 -3.7809591699900738e-02  9.5000493601811549e+00 4.7495931848800035e-02 -1.9205536237141835e-01  8.9966956191823204e+00 1.7874945946838594e-01 -1.0079941637157673e-01  8.6180922489772769e+00 1.0244683827471109e-01 -3.9012279501707985e-02  8.3000158508523771e+00 5.5596798732886657e-02 -6.8989590745466636e-02  8.2419871311763071e+00 -1.1264656579229471e-02 2.9257457842640708e-02  8.3963134311623762e+00 -5.6885987459301478e-02 6.0305581642799031e-03  8.0293162400681641e+00 -6.2689354428598437e-02 -1.8139669947012060e-02  8.4515325739084961e+00 -7.7702798543172495e-03 -9.0081722827158490e-03  8.8674511998442291e+00 2.5997697836332007e-02 9.2048051707515038e-02  8.0120059842368239e+00 -2.9120088330154278e-02 -9.2609416514906704e-03  8.6272036519282018e+00 4.7612034045377644e-02 -5.2610440355095114e-02  8.8846501865179857e+00 1.5238176387952818e-01 -1.0300694432371348e-01  8.3180885865623804e+00 5.0423076750114940e-03 -4.4819535261898351e-02  8.9794980125180501e+00 1.6613942996643979e-02 -3.6389300419009153e-04  9.5404296695382413e+00 7.1291646333811950e-02 1.5311017903373414e-01  9.9622188055073693e+00 9.1444093663327702e-02 2.5601174131360155e-01  8.7024250112849781e+00 6.7868944574339909e-02 -2.8560459348202741e-02  8.4814232860693970e+00 -7.4972545224135474e-03 -5.0749043365687961e-03  8.6951753669008500e+00 5.2361710451536675e-02 -1.5060879168642669e-01  8.9986576537944032e+00 3.8024951091664483e-02 8.7402227735439278e-02  8.6432857173417403e+00 6.4911327712210268e-02 -4.4940027303059377e-02  8.4517532549455403e+00 9.0215469501385235e-03 -5.0123597131561309e-02  8.7222321932508002e+00 -4.8213343170707490e-03 2.0724972457825100e-01  8.7210809657822708e+00 -2.9701241613099157e-03 2.9038199019006972e-01  7.7381300319706092e+00 3.8118557001767502e-03 -2.5719359216537108e-01  8.0563789569477624e+00 -9.7415772283962504e-02 -6.7006548823478562e-02  8.7361382107227996e+00 -8.6179033048321904e-03 1.4249347227482120e-01  7.8991391177755066e+00 -1.0404161449274101e-03 -1.9822785572121482e-01  7.6499984810827648e+00 1.8922357719292676e-03 -2.7648499192730236e-01  7.6212182549558589e+00 -8.5131171419094607e-04 -3.4535577047074933e-01  8.9445815294268538e+00 -1.8048926799988447e-02 2.5490863878179260e-01  8.9720804335037716e+00 -9.1051199795660637e-03 3.9433104393801705e-01  8.0434293445784366e+00 -1.0354769245838333e-01 -1.2545398556203169e-01  8.0764824604642182e+00 -9.5541286624453575e-02 -1.1814256982747876e-01  8.1104617191826360e+00 -8.1313532647037695e-02 -1.1004427555821591e-01  8.8508670416542738e+00 -1.8112689703689493e-02 1.6608398432900207e-01  7.7772361228546893e+00 -3.0239407954957432e-03 -2.1974973001171585e-01  8.1584761171067335e+00 7.5948484799209112e-02 -4.5101897298152560e-02  7.5146087141275348e+00 7.2676300792201016e-03 -2.3825434492736772e-01  7.4261660181683791e+00 1.4041021501674701e-02 -3.3069718604263831e-01  8.6918482038387346e+00 -1.8943376674592921e-02 1.2232788335081198e-01  9.0825315757514975e+00 -2.4933610076351344e-02 2.6341388673018179e-01  7.8720649259097684e+00 -1.2629697309635129e-01 -2.1885040213508339e-01  7.8774908601426548e+00 -8.4201261620073964e-02 -1.8641242700055694e-01  7.9426113961665763e+00 -6.5288783626500257e-02 -1.5666729998923429e-01  8.4342722848851519e+00 -1.3342287721538183e-02 4.4066352649001918e-02  7.6583694719822848e+00 1.3099325600324223e-03 -1.9193400202813929e-01  8.1333930124900853e+00 7.8680942568153944e-02 -8.7850750348931805e-02  8.0575126662631007e+00 7.6602119046092931e-02 -9.2194073903166224e-02  8.1060153182892165e+00 5.6150033832486061e-02 -9.1705159328506480e-02  7.9906842170047749e+00 -1.9573755526787345e-02 -1.5925840925696444e-01  7.5920278319239856e+00 2.3680958484626905e-03 -2.4751285242777143e-01  8.2930381060741354e+00 -1.2846093981625204e-02 -1.8381325648069081e-02  7.6367398364958987e+00 7.0640388820911067e-03 2.4294024972816953e-02  7.6473638487657389e+00 -1.6469620850543912e-01 -2.4675546899684131e-01  7.8238722546724393e+00 -1.1238218546948252e-01 -2.1325786207054051e-01  7.9153727161397889e+00 -8.9196777532914509e-02 -1.7928327002930886e-01  8.4116981893994556e+00 -3.1547044904512343e-02 -1.2132014040117352e-02  8.0104901062276372e+00 -1.4600144575981728e-02 -9.8545274227775287e-02  7.8974313667759199e+00 1.1247638858773267e-02 -1.9619547544946447e-01  7.8337194543545117e+00 -7.1835091280063976e-02 -1.8321888202181902e-01  7.9069140534209286e+00 4.2031754291790041e-02 -1.6148891860164208e-01  7.7496403915214218e+00 -9.5267061341076428e-03 -1.9486649507880993e-01  7.4644718759402000e+00 -2.1825510295465185e-04 -2.5471229643575172e-01  8.2457674468141740e+00 7.4081742935904124e-03 -1.8696569376236857e-02  8.0765351696151217e+00 1.6123913459384118e-02 5.8248101932755245e-02  7.6866079565136802e+00 -1.2224245394123909e-01 -2.3902037024298517e-01  7.8492868083982845e+00 -8.1815445603410086e-02 -2.0887339831734353e-01  7.9078655689774964e+00 -7.3804711219981695e-02 -1.7866585590770515e-01  8.3100956390963567e+00 -9.8096587349668883e-03 -3.3233945662780463e-02  7.9042780572246558e+00 -2.1317576160536474e-02 -1.1401977881889977e-01  7.9121920241866643e+00 1.4541843089989509e-02 -1.8021122724849442e-01  7.6775188651877553e+00 -9.7710799501377638e-03 -1.8837799512462045e-01  7.6283327805962635e+00 1.8274814044423457e-03 -2.7341290574361865e-01  7.9005185901693418e+00 -3.9368682933208284e-02 -2.2853738941277738e-01  7.9271748458568192e+00 -1.2304852828658135e-02 -1.9680802941251294e-01  7.8133239963940682e+00 -1.3467429893608588e-02 -1.3998583873086365e-01  8.0461995272637861e+00 -3.2193021413471051e-02 -2.4155810482093423e-01  8.0113206871323914e+00 -2.4282796224447591e-02 -1.9222850805149838e-01  8.6271895379451671e+00 5.8383837668321094e-02 -3.5796531436988230e-02  8.0619399462430881e+00 -5.1112153248393105e-02 -2.8558445416469025e-01  8.0463682799587684e+00 -4.7404271909816414e-02 -2.0806533777898298e-01  8.4580860915780978e+00 1.8001675183950835e-02 -4.3307535065203434e-02  8.6147069387464903e+00 5.4949163404600800e-02 -4.4352676783769633e-02  8.0476734916510164e+00 -5.6629216872345296e-02 -2.7141002086273736e-01  8.0441147859513435e+00 -5.4251415655655874e-02 -2.0382711301115436e-01  8.4598120977810662e+00 1.9510238782380326e-02 -4.8979554515171858e-02  8.0859924304084405e+00 -1.0022667241896667e-01 7.0666577136585126e-02  8.1212436843982214e+00 -1.1201778913395981e-01 1.4524301774401963e-01  7.5900021092541561e+00 -1.5115561663327567e-01 -2.4180885144427045e-01  7.4259398807528081e+00 -1.8423070192169275e-01 -3.2226536713260207e-01  7.4440563330235809e+00 -2.6471132172148704e-01 -6.2928269656443836e-01  7.9683918300759604e+00 -1.6632140612927318e-01 -2.3932210429922954e-02  7.9552517151885453e+00 -2.0252007098164523e-01 4.1574946501629663e-02  6.6773471604547785e+00 -4.7254430903849459e-01 -3.3018847540616270e-01  6.3128087583539392e+00 -5.0939222328444489e-01 -4.1741574256328262e-01  6.5863705454628425e+00 -4.8448861157623907e-01 -2.9273926761830116e-01  8.3417644382530725e+00 -4.2294542857966447e-03 5.2796702644225472e-02  7.9589673907296126e+00 -6.0881414379207230e-02 -9.3766769806308881e-02  8.1769591929255050e+00 -4.5744098607506924e-02 -6.0519234662428548e-02  8.2739881548938481e+00 -3.2309729251514763e-02 -5.4400420503159082e-02  8.0239804172463902e+00 5.0515879757072286e-02 -5.7074953197970138e-02  8.1855895865597130e+00 5.0689810108137480e-02 -5.7538815351509578e-02  8.3761189150735067e+00 -2.0803720653977844e-03 3.4306863401539316e-02  8.2846558467799039e+00 1.2183177788486273e-01 5.7651729232233752e-03  7.9405634507119958e+00 -5.5773148716883811e-02 -9.4172907580614057e-02  8.2034573795051458e+00 5.4184077525475513e-03 3.8995012194133483e-02  8.0933016894966805e+00 -4.8071508361643846e-02 -5.7053680921587309e-02  8.2246905011927431e+00 -2.8566039036768645e-02 -4.8708397235985246e-02  8.2461108851881768e+00 1.0118751767488177e-01 -6.3181015346250990e-03  8.0863109733141982e+00 -5.1256781819251376e-02 -6.9987094406290154e-02  8.3170678445391744e+00 6.6709973391837082e-02 -2.6477546529281169e-02  7.8505106046697515e+00 -4.6140501977943116e-02 -7.3097098682120595e-02  7.9828219753560745e+00 2.4719110493441231e-02 -1.1474528555216005e-02  7.9987726243654587e+00 -5.4915495902657756e-02 -3.2199118323063255e-02  8.1326887351869299e+00 -4.4687628969655238e-02 -2.6837443129010392e-02  8.0691618721500937e+00 5.6137107264538813e-02 -3.2235562686364634e-02  8.1629229171561573e+00 2.6887654905714303e-02 -2.9968869609319132e-02  7.7140274602854664e+00 -4.2035457242918052e-02 -5.8591378799718506e-02  7.9421937054581386e+00 1.9756287529520387e-02 -1.6360731273157209e-02  7.9370947828625331e+00 -7.4456708608902120e-02 -1.7888311605323282e-02  8.0072307717283628e+00 -5.8262475306567856e-02 -3.0054249090099863e-02  8.0481177282144252e+00 1.6672998893800001e-02 -2.8622534470956237e-02  7.7972915480125096e+00 -4.2571358489924140e-02 -2.4819092771054216e-01  8.6776671030181252e+00 -8.2118347194895559e-03 1.0688500595363497e-01  8.3038982186992172e+00 5.8368665199677983e-02 -2.1623872622319320e-02  8.3661621177223928e+00 4.5508588728720600e-02 -2.9512845157430832e-02  7.9743946242789905e+00 -3.8805900125732817e-02 -1.8497593231368883e-01  8.6405255214165528e+00 -9.3650658228236986e-03 6.0602181245909457e-02  8.2539404845593385e+00 -8.8489177960009782e-02 -4.4663054932650131e-02  8.8184910380247103e+00 2.8372592046073879e-03 1.4594434796061334e-01  7.6525050873469889e+00 -4.4493852510426382e-02 -2.7627224125296523e-01  8.2681118646474463e+00 5.5305883232786110e-02 -3.0012267243372765e-02  8.3230006890261556e+00 3.1992837536123427e-02 -4.0114311654865703e-02  7.9304967433117257e+00 -3.7906014814583583e-02 -1.8808350308167676e-01  8.7540679411577340e+00 -1.2696010398650253e-04 9.5055692964491734e-02  8.2166756984052594e+00 -8.7212967204727626e-02 -6.0686780308566203e-02  8.3045384905972561e+00 -5.6923650383449653e-02 -5.2053240943116731e-02  8.6977194675907743e+00 1.5055863447119709e-02 1.1899550511540986e-01  8.0399254202994932e+00 -1.9725398764624414e-02 -1.0270162673171240e-01  8.0838502362424407e+00 3.6918644231834254e-02 -6.0024463325576802e-02  8.1771364709986507e+00 3.7496811124414456e-02 -6.0587060984380686e-02  8.2694083226356163e+00 -6.3573884755800079e-03 -3.4146948716568662e-02  8.6142596811305623e+00 6.3573345859747081e-03 8.9550173420956766e-02  8.1275759802281353e+00 -5.3353223710462076e-02 -6.7568545475928152e-02  8.2347053805173136e+00 -2.0010124995676247e-02 -5.0168385776071620e-02  8.2756452151215392e+00 -1.0692828173994452e-02 3.2850221804696794e-02  8.0202859479647319e+00 -2.2224433139920455e-02 2.7889387575049038e-03  8.1036289370854604e+00 4.9992012029739741e-02 -6.0382472620093185e-02  8.0734846142258210e+00 3.3324755508182861e-02 -6.3317239093530486e-02  8.0616808780133109e+00 -1.7468715112356332e-02 -8.6360572603249848e-04  8.3619090027151000e+00 -4.8960709015601215e-03 1.0075146545510000e-02  8.0182417086913524e+00 -5.8279793659790656e-02 -4.1129717732543085e-02  8.0960534032978444e+00 -4.0033604996961895e-02 -4.7844762549129900e-02  8.4095223750879278e+00 -3.2128402298819709e-04 4.9281838612939471e-02  8.1350576385769617e+00 -1.9789163997625429e-02 2.7069552085466006e-02  8.1923796345029825e+00 3.5767099392428572e-02 -4.3150842215506864e-02  8.0896973586231695e+00 1.5325256761744864e-02 -6.2754163279845177e-02  8.1219849339621426e+00 -3.8118186263079543e-02 -5.3026992553724825e-02  8.3436280436427417e+00 -4.1459416710172064e-03 -6.1084197518182842e-03  8.0818961150397151e+00 -3.5930156778251919e-02 -4.9489632367379535e-02  8.5695506326155026e+00 1.1737388342176545e-02 5.0429385684737704e-02  8.1116371896513080e+00 -3.7758355662368605e-02 -1.0007841900484343e-01  8.1611254642934803e+00 -5.4909282360888739e-02 -2.7722649424401211e-02  8.0258852045218472e+00 -5.8721765002733885e-03 -1.6116874333325260e-01  8.7119669480264488e+00 -1.1319492684103429e-02 8.0013737449645086e-02  8.6814485276136342e+00 -1.5371532761750253e-02 3.5953307066144462e-02  8.3333101293326539e+00 -7.5290483032414784e-02 -5.7317441185502062e-02  7.9380740650487445e+00 -9.0568221109391406e-03 -1.6988757484124384e-01  8.7340997497175739e+00 -1.5429616272388100e-02 9.0362003399799842e-02  8.6298922104541784e+00 -1.9104274285283974e-02 2.833540944439